Siesta Version  : trunk-787
Architecture    : gfortran-gridxc-0.8.5-legacy
Compiler version: GNU Fortran (Ubuntu 7.4.0-1ubuntu1~18.04.1) 7.4.0
Compiler flags  : mpif90 -O0 -fbacktrace
PP flags        : -DCDF -DNCDF -DNCDF_3  -DMPI -DMPI_TIMING  -DF2003
Libraries       : libncdf.a libfdict.a -lnetcdff -lnetcdf -lhdf5_hl -lhdf5 -lz -llapack -lblas  -L/home/juijan/compile/scalapack-2.0.2 -lscalapack   libncdf.a libfdict.a
Directory       : /mnt/c/Users/nilsw/Projects/2019/Schools/TranSiesta-2020-03/Tutorials/Test/siesta_work
PARALLEL version
NetCDF support

* Running in serial mode with MPI
>> Start of run:  26-FEB-2020  11:34:55

                           ***********************       
                           *  WELCOME TO SIESTA  *       
                           ***********************       

reinit: Reading from Bi2D_BHex.fdf

reinit: -----------------------------------------------------------------------
reinit: System Name: Bi2D_BHex
reinit: -----------------------------------------------------------------------
reinit: System Label: Bi2D_BHex
reinit: -----------------------------------------------------------------------

initatom: Reading input for the pseudopotentials and atomic orbitals ----------
Species number:   1 Atomic number:   83 Label: Bi

Ground state valence configuration:   6s02  6p03
Reading pseudopotential information in formatted form from Bi.psf

Pseudopotential generated from a relativistic atomic calculation

Valence configuration for pseudopotential generation:
6s( 2.00) rc: 2.43
6p( 3.00) rc: 2.52
5d(10.00) rc: 2.10
Semicore shell(s) with 10 electrons included in the valence for
Bi
For Bi, standard SIESTA heuristics set lmxkb to 3
 (one more than the basis l, including polarization orbitals).
Use PS.lmax or PS.KBprojectors blocks to override.
Bi: nkbl increased for l=2 due to the presence of a polarization orbital
Bi pseudopotential only contains V_ls up to l=2 -- lmxkb reset.

<basis_specs>
===============================================================================
Bi                   Z=  83    Mass=  208.98        Charge= 0.17977+309
Lmxo=2 Lmxkb= 2    BasisType=split      Semic=T
L=0  Nsemic=0  Cnfigmx=6
          i=1  nzeta=1  polorb=0  (6s)
            splnorm:   0.15000    
               vcte:    0.0000    
               rinn:    0.0000    
               qcoe:    0.0000    
               qyuk:    0.0000    
               qwid:   0.10000E-01
                rcs:    4.8610    
            lambdas:    1.0000    
L=1  Nsemic=0  Cnfigmx=6
          i=1  nzeta=1  polorb=1  (6p)
            splnorm:   0.15000    
               vcte:    0.0000    
               rinn:    0.0000    
               qcoe:    0.0000    
               qyuk:    0.0000    
               qwid:   0.10000E-01
                rcs:    6.3990    
            lambdas:    1.0000    
L=2  Nsemic=0  Cnfigmx=5
          i=1  nzeta=1  polorb=0  (5d)
            splnorm:   0.15000    
               vcte:    0.0000    
               rinn:    0.0000    
               qcoe:    0.0000    
               qyuk:    0.0000    
               qwid:   0.10000E-01
                rcs:    3.2580    
            lambdas:    1.0000    
-------------------------------------------------------------------------------
L=0  Nkbl=1  erefs: 0.17977+309
L=1  Nkbl=1  erefs: 0.17977+309
L=2  Nkbl=2  erefs: 0.17977+309 0.17977+309
===============================================================================
</basis_specs>

atom: Called for Bi                    (Z =  83)

read_vps: Pseudopotential generation method:
read_vps: ONCVPSP-3.Hamann's oncvpsp                        
Total valence charge:   15.00000

read_vps: Pseudopotential includes a core correction:
read_vps: Pseudo-core for xc-correction

xc_check: Exchange-correlation functional:
xc_check: GGA Perdew, Burke & Ernzerhof 1996
V l=0 = -2*Zval/r beyond r=  3.9795
V l=1 = -2*Zval/r beyond r=  3.9795
V l=2 = -2*Zval/r beyond r=  3.9795
All V_l potentials equal beyond r=  2.4748
This should be close to max(r_c) in ps generation
All pots = -2*Zval/r beyond r=  3.9795
Using large-core scheme for Vlocal

atom: Estimated core radius    3.97948
atom: Maximum radius for 4*pi*r*r*local-pseudopot. charge    4.13155
atom: Maximum radius for r*vlocal+2*Zval:    4.02954

KBgen: Kleinman-Bylander projectors: 
GHOST: No ghost state for L =  0
   l= 0   rc=  2.569337   el= -1.057865   Ekb=  7.274051   kbcos=  0.187474
GHOST: No ghost state for L =  1
j- l= 1   rc=  2.569337   el= -0.440010   Ekb=  3.914082   kbcos=  0.184821
GHOST: No ghost state for L =  1
j+ l= 1   rc=  2.569337   el= -0.298884   Ekb=  3.062473   kbcos=  0.225455
j- l= 2   rc=  2.537420   el= -2.110958   Ekb= -9.364966   kbcos= -0.812413
j+ l= 2   rc=  2.537420   el= -1.890824   Ekb= -8.769588   kbcos= -0.800342
j- l= 2   rc=  2.569337   el=  0.001981   Ekb= -5.079753   kbcos= -0.143332
j+ l= 2   rc=  2.569337   el=  0.001981   Ekb= -4.645330   kbcos= -0.151708
KBgen: More than one KB projector for some l shell(s)
KBgen: ghost-state analysis will not be performed

KBgen: Total number of  Kleinman-Bylander projectors:   27
atom: -------------------------------------------------------------------------

atom: SANKEY-TYPE ORBITALS:

SPLIT: Orbitals with angular momentum L= 0

SPLIT: Basis orbitals for state 6s

   izeta = 1
                 lambda =    1.000000
                     rc =    4.860558
                 energy =   -1.040630
                kinetic =    0.659530
    potential(screened) =   -1.700160
       potential(ionic) =  -14.393872

SPLIT: Orbitals with angular momentum L= 1

SPLIT: Basis orbitals for state 6p

   izeta = 1
                 lambda =    1.000000
                     rc =    6.399083
                 energy =   -0.317260
                kinetic =    0.736876
    potential(screened) =   -1.054136
       potential(ionic) =  -11.346061

SPLIT: Orbitals with angular momentum L= 2

SPLIT: Basis orbitals for state 5d

   izeta = 1
                 lambda =    1.000000
                     rc =    3.258120
                 energy =   -1.959391
                kinetic =    7.659278
    potential(screened) =   -9.618668
       potential(ionic) =  -26.283006

POLgen: Perturbative polarization orbital with L=  2

POLgen: Polarization orbital for state 6p

   izeta = 1
                     rc =    6.399083
                 energy =    0.269870
                kinetic =    1.171687
    potential(screened) =   -0.901817
       potential(ionic) =  -10.315337
atom: Total number of Sankey-type orbitals: 14

atm_pop: Valence configuration (for local Pseudopot. screening):
 6s( 2.00)                                                            
 6p( 3.00)                                                            
 5d(10.00) 6d( 0.00)                                                  
Vna: chval, zval:   15.00000  15.00000

Vna:  Cut-off radius for the neutral-atom potential:   6.399083
comcore: Pseudo-core radius Rcore=  3.258120

atom: _________________________________________________________________________

prinput: Basis input ----------------------------------------------------------

PAO.BasisType split     

%block ChemicalSpeciesLabel
    1   83 Bi                      # Species index, atomic number, species label
%endblock ChemicalSpeciesLabel

%block PAO.Basis                 # Define Basis set
Bi                    3                    # Species label, number of l-shells
 n=6   0   1                         # n, l, Nzeta 
   4.861   
   1.000   
 n=6   1   1 P   1                   # n, l, Nzeta, Polarization, NzetaPol
   6.399   
   1.000   
 n=5   2   1                         # n, l, Nzeta 
   3.258   
   1.000   
%endblock PAO.Basis

prinput: ----------------------------------------------------------------------

Dumping basis to NetCDF file Bi.ion.nc
coor:   Atomic-coordinates input format  =     Cartesian coordinates
coor:                                          (in Angstroms)

ioxv: Reading coordinates and velocities from file
! Info in XV file prevails over previous structure input

siesta: Atomic coordinates (Bohr) and species
siesta:      0.00000   0.00000   0.00000  1        1
siesta:      4.34637   2.50938   3.06136  1        2

siesta: System type = slab      

initatomlists: Number of atoms, orbitals, and projectors:      2    28    54

siesta: ******************** Simulation parameters ****************************
siesta:
siesta: The following are some of the parameters of the simulation.
siesta: A complete list of the parameters used, including default values,
siesta: can be found in file out.fdf
siesta:
redata: Spin configuration                          = spin-orbit+offsite
redata: Number of spin components                   = 8
redata: Time-Reversal Symmetry                      = F
redata: Spin-spiral                                 = F
redata: Long output                                 =   F
redata: Number of Atomic Species                    =        1
redata: Charge density info will appear in .RHO file
redata: Write Mulliken Pop.                         = NO
redata: Matel table size (NRTAB)                    =     1024
redata: Mesh Cutoff                                 =   400.0000 Ry
redata: Net charge of the system                    =     0.0000 |e|
redata: Min. number of SCF Iter                     =        0
redata: Max. number of SCF Iter                     =     1000
redata: SCF convergence failure will abort job
redata: SCF mix quantity                            = Hamiltonian
redata: Mix DM or H after convergence               =   F
redata: Recompute H after scf cycle                 =   F
redata: Mix DM in first SCF step                    =   F
redata: Write Pulay info on disk                    =   F
redata: New DM Occupancy tolerance                  = 0.000000000001
redata: No kicks to SCF
redata: DM Mixing Weight for Kicks                  =     0.5000
redata: Require Harris convergence for SCF          =   F
redata: Harris energy tolerance for SCF             =     0.000100 eV
redata: Require DM convergence for SCF              =   T
redata: DM tolerance for SCF                        =     0.001000
redata: Require EDM convergence for SCF             =   F
redata: EDM tolerance for SCF                       =     0.001000 eV
redata: Require H convergence for SCF               =   T
redata: Hamiltonian tolerance for SCF               =     0.001000 eV
redata: Require (free) Energy convergence for SCF   =   F
redata: (free) Energy tolerance for SCF             =     0.000100 eV
redata: Using Saved Data (generic)                  =   F
redata: Use continuation files for DM               =   F
redata: Neglect nonoverlap interactions             =   F
redata: Method of Calculation                       = Diagonalization
redata: Electronic Temperature                      =   116.0444 K
redata: Fix the spin of the system                  =   F
redata: Split SR and SO contributions               =   T
redata: Max. number of TDED Iter                    =        1
redata: Number of TDED substeps                     =        3
redata: Dynamics option                             = Single-point calculation
mix.SCF: Pulay mixing                            = Pulay
mix.SCF:    Variant                              = stable
mix.SCF:    History steps                        = 5
mix.SCF:    Linear mixing weight                 =     0.250000
mix.SCF:    Mixing weight                        =     0.250000
mix.SCF:    SVD condition                        = 0.1000E-07
mix.SCF: Spin-component mixing                   all
redata: ***********************************************************************

%block SCF.Mixers
  Pulay
%endblock SCF.Mixers

%block SCF.Mixer.Pulay
  # Mixing method
  method pulay
  variant stable

  # Mixing options
  weight 0.2500
  weight.linear 0.2500
  history 5
%endblock SCF.Mixer.Pulay

DM_history_depth set to one: no extrapolation allowed by default for geometry relaxation
Size of DM history Fstack: 1
Total number of electrons:    30.000000
Total ionic charge:    30.000000

* ProcessorY, Blocksize:    1  24


* Orbital distribution balance (max,min):    28    28

k-point displ. along   1 input, could be:     0.50    0.00
k-point displ. along   2 input, could be:     0.50    0.00
k-point displ. along   3 input, could be:     0.50    0.00

Time-reversal symmetry not used.

siesta: k-grid: Number of k-points =        81
siesta: k-points from Monkhorst-Pack grid
siesta: k-cutoff (effective) =    20.000 Ang
siesta: k-point supercell and displacements
siesta: k-grid:    9   0   0      0.500
siesta: k-grid:    0   9   0      0.500
siesta: k-grid:    0   0   1      0.500

diag: Algorithm                                     = D&C
diag: Parallel over k                               =   F
diag: Use parallel 2D distribution                  =   F
diag: Parallel block-size                           = 24
diag: Parallel distribution                         =     1 x     1
diag: Used triangular part                          = Lower
diag: Absolute tolerance                            =  0.100E-15
diag: Orthogonalization factor                      =  0.100E-05
diag: Memory factor                                 =  1.0000

superc: Internal auxiliary supercell:     5 x     5 x     1  =      25
superc: Number of atoms, orbitals, and projectors:     50    700   1350


ts: **************************************************************
ts: Save H and S matrices                           =    F
ts: Save DM and EDM matrices                        =    F
ts: Fix Hartree potential                           =    F
ts: Only save the overlap matrix S                  =    F
ts: **************************************************************

************************ Begin: TS CHECKS AND WARNINGS ************************
************************ End: TS CHECKS AND WARNINGS **************************


                     ====================================
                        Single-point calculation
                     ====================================

superc: Internal auxiliary supercell:     5 x     5 x     1  =      25
superc: Number of atoms, orbitals, and projectors:     50    700   1350

outcell: Unit cell vectors (Ang):
        4.600000    0.000000    0.000000
       -2.300000    3.983717    0.000000
        0.000000    0.000000   40.000000

outcell: Cell vector modules (Ang)   :    4.600000    4.600000   40.000000
outcell: Cell angles (23,13,12) (deg):     90.0000     90.0000    120.0000
outcell: Cell volume (Ang**3)        :    733.0039
<dSpData1D:S at geom step 0
  <sparsity:sparsity for geom step 0
    nrows_g=28 nrows=28 sparsity=8.2602 nnzs=6476, refcount: 8>
  <dData1D:(new from dSpData1D) n=6476, refcount: 1>
refcount: 1>
new_DM -- step:     1
Initializing Density Matrix...
DM filled with atomic data:
<dSpData2D:DM initialized from atoms
  <sparsity:sparsity for geom step 0
    nrows_g=28 nrows=28 sparsity=8.2602 nnzs=6476, refcount: 9>
  <dData2D:DM n=6476 m=8, refcount: 1>
refcount: 1>
     spin moment: S , {S} =    6.00000   0.00000   0.00000   6.00000
New grid distribution:   1
           1       1:   24    1:   24    1:  243

InitMesh: MESH =    48 x    48 x   486 =     1119744
InitMesh: (bp) =    24 x    24 x   243 =      139968
InitMesh: Mesh cutoff (required, used) =   400.000   401.243 Ry
ExtMesh (bp) on 0 =   108 x   108 x   327 =     3814128
PhiOnMesh: Number of (b)points on node 0 =               139968
PhiOnMesh: nlist on node 0 =               602934

stepf: Fermi-Dirac step function

siesta: Program's energy decomposition (eV):
siesta: Ebs     =      -606.084205
siesta: Eions   =      3891.543212
siesta: Ena     =        41.873769
siesta: Ekin    =      2083.013048
siesta: Enl          -1525.523481
siesta: Eso             -2.256810
siesta: Eldau   =         0.000000
siesta: DEna    =         8.880845
siesta: DUscf   =         1.422311
siesta: DUext   =         0.000000
siesta: Exc     =     -1165.206782
siesta: eta*DQ  =         0.000000
siesta: Emadel  =         0.000000
siesta: Emeta   =         0.000000
siesta: Emolmec =         0.000000
siesta: Ekinion =         0.000000
siesta: Eharris =     -4446.920816
siesta: Etot    =     -4449.340311
siesta: FreeEng =     -4449.341215

        iscf     Eharris(eV)        E_KS(eV)     FreeEng(eV)     dDmax    Ef(eV) dHmax(eV)
   scf:    1    -4446.920816    -4449.340311    -4449.341215  0.472801 -1.548631  5.277953
     spin moment: S , {S} =    1.79014  -0.00502   0.00290   1.79013
timer: Routine,Calls,Time,% = IterSCF        1      14.859  67.16
   scf:    2    -4455.716536    -4452.012307    -4452.012307  0.213295 -2.855517  0.705267
     spin moment: S , {S} =    0.15164   0.00084  -0.00048   0.15164
   scf:    3    -4452.072129    -4452.039385    -4452.039385  0.009660 -2.887911  0.483609
     spin moment: S , {S} =    0.12682   0.00055  -0.00032   0.12682
   scf:    4    -4452.086473    -4452.060460    -4452.060460  0.014940 -2.927400  0.317606
     spin moment: S , {S} =    0.07814   0.00017  -0.00010   0.07814
   scf:    5    -4452.075504    -4452.069305    -4452.069305  0.011733 -2.944537  0.109655
     spin moment: S , {S} =    0.03760  -0.00010   0.00006   0.03760
   scf:    6    -4452.076784    -4452.071204    -4452.071204  0.005707 -2.934757  0.019626
     spin moment: S , {S} =    0.00820  -0.00004   0.00002   0.00820
   scf:    7    -4452.072134    -4452.071342    -4452.071342  0.001097 -2.933945  0.011830
     spin moment: S , {S} =    0.00552  -0.00005   0.00003   0.00552
   scf:    8    -4452.072777    -4452.071418    -4452.071418  0.001711 -2.932126  0.003114
     spin moment: S , {S} =    0.00112  -0.00004   0.00003   0.00112
   scf:    9    -4452.071394    -4452.071420    -4452.071420  0.000166 -2.932341  0.002256
     spin moment: S , {S} =    0.00075  -0.00003   0.00002   0.00075
   scf:   10    -4452.071280    -4452.071422    -4452.071422  0.000266 -2.932643  0.000918
     spin moment: S , {S} =    0.00025  -0.00002   0.00001   0.00025

SCF Convergence by DM+H criterion
max |DM_out - DM_in|         :     0.0002657456
max |H_out - H_in|      (eV) :     0.0009182239
SCF cycle converged after 10 iterations

Using DM_out to compute the final energy and forces

siesta: E_KS(eV) =            -4452.0714

siesta: E_KS - E_eggbox =     -4452.0714
     spin moment: S , {S} =    0.00025  -0.00002   0.00001   0.00025

siesta: Atomic forces (eV/Ang):
----------------------------------------
   Tot    0.000002   -0.000001    0.003370
----------------------------------------
   Max    0.172074
   Res    0.040236    sqrt( Sum f_i^2 / 3N )
----------------------------------------
   Max    0.172074    constrained

Stress-tensor-Voigt (kbar):        2.15        2.11       -0.59       -0.03       -0.02        0.03
(Free)E + p*V (eV/cell)    -4452.6310
Target enthalpy (eV/cell)    -4452.0714

siesta: Program's energy decomposition (eV):
siesta: Ebs     =      -600.055103
siesta: Eions   =      3891.543212
siesta: Ena     =        41.873769
siesta: Ekin    =      2101.006511
siesta: Enl          -1542.270122
siesta: Eso             -1.829286
siesta: Eldau   =         0.000000
siesta: DEna    =         7.620566
siesta: DUscf   =         0.980673
siesta: DUext   =         0.000000
siesta: Exc     =     -1167.910322
siesta: eta*DQ  =         0.000000
siesta: Emadel  =         0.000000
siesta: Emeta   =         0.000000
siesta: Emolmec =         0.000000
siesta: Ekinion =         0.000000
siesta: Eharris =     -4452.071280
siesta: Etot    =     -4452.071422
siesta: FreeEng =     -4452.071422

siesta: Final energy (eV):
siesta:  Band Struct. =    -600.055103
siesta:       Kinetic =    2101.006511
siesta:       Hartree =   13367.775275
siesta:       Eldau   =       0.000000
siesta:       Eso     =      -1.829286
siesta:    Ext. field =       0.000000
siesta:   Exch.-corr. =   -1167.910322
siesta:  Ion-electron =  -28763.248408
siesta:       Ion-ion =   10012.134808
siesta:       Ekinion =       0.000000
siesta:         Total =   -4452.071422
siesta:         Fermi =      -2.932643

siesta: Atomic forces (eV/Ang):
siesta:      1    0.008896   -0.005136   -0.168704
siesta:      2   -0.008894    0.005135    0.172074
siesta: ----------------------------------------
siesta:    Tot    0.000002   -0.000001    0.003370

siesta: Stress tensor (static) (eV/Ang**3):
siesta:     0.001341   -0.000019    0.000020
siesta:    -0.000019    0.001319   -0.000011
siesta:     0.000020   -0.000011   -0.000370

siesta: Cell volume =        733.003902 Ang**3

siesta: Pressure (static):
siesta:                Solid            Molecule  Units
siesta:          -0.00000831         -0.00000961  Ry/Bohr**3
siesta:          -0.00076341         -0.00088273  eV/Ang**3
siesta:          -1.22312690         -1.41430450  kBar
(Free)E+ p_basis*V_orbitals  =       -4451.027758
(Free)Eharris+ p_basis*V_orbitals  =       -4451.027616
     spin moment: S , {S} =    0.00025  -0.00002   0.00001   0.00025

siesta: Electric dipole (a.u.)  =   -0.000000   -0.000000   -0.000280
siesta: Electric dipole (Debye) =   -0.000000   -0.000000   -0.000711

cite: Please see "Bi2D_BHex.bib" for an exhaustive BiBTeX file.
cite: This calculation has made use of the following articles.
cite: Articles are encouraged to be cited in a published work.
        Primary SIESTA paper
          DOI: www.doi.org/10.1088/0953-8984/14/11/302                                     
        Spin-orbit coupling (off-site approximation)
          DOI: www.doi.org/10.1088/0953-8984/24/8/086005                                   


timer: Elapsed wall time (sec) =     121.123
timer: CPU execution times (sec):

Routine            Calls   Time/call    Tot.time        %
siesta                 1     118.469     118.469   100.00
Setup                  1       0.156       0.156     0.13
MPI_COMM_RANK          3       0.000       0.000     0.00
MPI_BCAST          24415       0.000       0.047     0.04
bands                  1       0.000       0.000     0.00
KSV_init               1       0.000       0.000     0.00
MPI_ALLREDUCE        191       0.000       0.016     0.01
IterGeom               1     118.312     118.312    99.87
state_init             1       0.578       0.578     0.49
hsparse                1       0.000       0.000     0.00
overlap                1       0.562       0.562     0.47
Setup_H0               1       6.531       6.531     5.51
naefs                  2       0.000       0.000     0.00
MolMec                 2       0.000       0.000     0.00
kinefsm                2       0.281       0.562     0.47
nlefsm                 2       1.625       3.250     2.74
DHSCF_Init             1       3.000       3.000     2.53
DHSCF1                 1       0.359       0.359     0.30
INITMESH               1       0.000       0.000     0.00
DHSCF2                 1       2.641       2.641     2.23
REMESH                 1       0.188       0.188     0.16
REORD                116       0.010       1.188     1.00
PHION                  1       1.281       1.281     1.08
COMM_BSC             198       0.007       1.359     1.15
POISON                13       1.011      13.141    11.09
fft                   26       0.454      11.812     9.97
MPI_COMM_SPLIT         2       0.000       0.000     0.00
MPI_COMM_SIZE          2       0.000       0.000     0.00
IterSCF               10       9.950      99.500    83.99
setup_H               11       8.453      92.984    78.49
DHSCF                 12       8.686     104.234    87.98
DHSCF3                12       8.346     100.156    84.54
rhoofd                12       2.863      34.359    29.00
XC                    12       2.191      26.297    22.20
GXC-CellXC            12       2.074      24.891    21.01
cellXC                12       2.074      24.891    21.01
vmat                  12       1.867      22.406    18.91
writeHSX              12       0.001       0.016     0.01
compute_dm            10       0.636       6.359     5.37
diagon                10       0.636       6.359     5.37
cdiag               1620       0.001       2.312     1.95
cdiag1              1620       0.000       0.219     0.18
cdiag2              1620       0.000       0.422     0.36
cdiag3              1620       0.001       1.438     1.21
cdiag4               810       0.000       0.172     0.15
MIXER                  9       0.010       0.094     0.08
PostSCF                1      11.688      11.688     9.87
DHSCF4                 1       4.078       4.078     3.44
dfscf                  1       3.781       3.781     3.19
overfsm                1       0.016       0.016     0.01
state_analysis         1       0.016       0.016     0.01
siesta_move            1       0.000       0.000     0.00
Analysis               1       0.000       0.000     0.00
optical                1       0.000       0.000     0.00
  

>> End of run:  26-FEB-2020  11:36:56
Job completed
