<preamble>

<basis_specs>
===============================================================================
Bi                   Z=  83    Mass=  208.98        Charge= 0.17977+309
Lmxo=2 Lmxkb= 2    BasisType=split      Semic=T
L=0  Nsemic=0  Cnfigmx=6
          i=1  nzeta=1  polorb=0  (6s)
            splnorm:   0.15000    
               vcte:    0.0000    
               rinn:    0.0000    
               qcoe:    0.0000    
               qyuk:    0.0000    
               qwid:   0.10000E-01
                rcs:    4.8606    
            lambdas:    1.0000    
L=1  Nsemic=0  Cnfigmx=6
          i=1  nzeta=1  polorb=1  (6p)
            splnorm:   0.15000    
               vcte:    0.0000    
               rinn:    0.0000    
               qcoe:    0.0000    
               qyuk:    0.0000    
               qwid:   0.10000E-01
                rcs:    6.3991    
            lambdas:    1.0000    
L=2  Nsemic=0  Cnfigmx=5
          i=1  nzeta=1  polorb=0  (5d)
            splnorm:   0.15000    
               vcte:    0.0000    
               rinn:    0.0000    
               qcoe:    0.0000    
               qyuk:    0.0000    
               qwid:   0.10000E-01
                rcs:    3.2581    
            lambdas:    1.0000    
-------------------------------------------------------------------------------
L=0  Nkbl=1  erefs: 0.17977+309
L=1  Nkbl=1  erefs: 0.17977+309
L=2  Nkbl=2  erefs: 0.17977+309 0.17977+309
===============================================================================
</basis_specs>

<pseudopotential_header>
 Bi pb rel pcec
 ONCVPSP-3.2018-04-23Hamann's oncvpsp                        
 6s 2.00r r= 2.43/6p 3.00r r= 2.52/5d10.00r r= 2.10/                   
</pseudopotential_header>
</preamble>
Bi                            # Symbol
Bi                            # Label
   83                         # Atomic number
     15.0000000000                             # Valence charge
     208.980000000        # Mass 
     143.010451860        # Self energy 
   2   4                      # Lmax for basis, no. of nl orbitals 
   2   7 T                    # Lmax for projectors, no. of nl KB projectors, LJ projs?
# PAOs:__________________________
  0  6  1  0  2.000000   #orbital l, n, z, is_polarized, population
 500    0.9740597212262411E-02     4.860558008918943     # npts, delta, cutoff
     0.000000000000000        0.7159346852854280E-01
    0.9740597212262411E-02    0.7164097558161685E-01
    0.1948119442452482E-01    0.7178366183669202E-01
    0.2922179163678723E-01    0.7202135867116684E-01
    0.3896238884904964E-01    0.7235389586943652E-01
    0.4870298606131206E-01    0.7278103547369562E-01
    0.5844358327357446E-01    0.7330247212934195E-01
    0.6818418048583688E-01    0.7391783352382991E-01
    0.7792477769809929E-01    0.7462668092383669E-01
    0.8766537491036169E-01    0.7542850980587462E-01
    0.9740597212262411E-01    0.7632275058007865E-01
    0.1071465693348865        0.7730876940620734E-01
    0.1168871665471489        0.7838586909649298E-01
    0.1266277637594113        0.7955329011259563E-01
    0.1363683609716738        0.8081021163770664E-01
    0.1461089581839362        0.8215575273981612E-01
    0.1558495553961986        0.8358897361313423E-01
    0.1655901526084610        0.8510887689356679E-01
    0.1753307498207234        0.8671440905096070E-01
    0.1850713470329858        0.8840446185562793E-01
    0.1948119442452482        0.9017787390481305E-01
    0.2045525414575106        0.9203343222156929E-01
    0.2142931386697730        0.9396987391024192E-01
    0.2240337358820355        0.9598588787145422E-01
    0.2337743330942978        0.9808011656728792E-01
    0.2435149303065603        0.1002511578412846    
    0.2532555275188227        0.1024975667781136    
    0.2629961247310851        0.1048178576109395    
    0.2727367219433475        0.1072105056593449    
    0.2824773191556099        0.1096739493071901    
    0.2922179163678723        0.1122065920066317    
    0.3019585135801348        0.1148068043026233    
    0.3116991107923971        0.1174729258870186    
    0.3214397080046595        0.1202032676602642    
    0.3311803052169220        0.1229961138091671    
    0.3409209024291844        0.1258497238903540    
    0.3506614996414468        0.1287623349184333    
    0.3604020968537092        0.1317321634492384    
    0.3701426940659716        0.1347574076639559    
    0.3798832912782340        0.1378362494351263    
    0.3896238884904965        0.1409668563891665    
    0.3993644857027588        0.1441473839372406    
    0.4091050829150212        0.1473759773002568    
    0.4188456801272837        0.1506507734927565    
    0.4285862773395461        0.1539699032904304    
    0.4383268745518085        0.1573314931517433    
    0.4480674717640709        0.1607336671146642    
    0.4578080689763333        0.1641745486409827    
    0.4675486661885957        0.1676522624305184    
    0.4772892634008581        0.1711649361750497    
    0.4870298606131205        0.1747107022703441    
    0.4967704578253830        0.1782876994747647    
    0.5065110550376454        0.1818940745085291    
    0.5162516522499078        0.1855279836010723    
    0.5259922494621702        0.1891875939716684    
    0.5357328466744326        0.1928710852525894    
    0.5454734438866951        0.1965766508446735    
    0.5552140410989574        0.2003024992094891    
    0.5649546383112198        0.2040468550909564    
    0.5746952355234822        0.2078079606715494    
    0.5844358327357446        0.2115840766509189    
    0.5941764299480070        0.2153734832658698    
    0.6039170271602695        0.2191744812232741    
    0.6136576243725319        0.2229853925725971    
    0.6233982215847943        0.2268045614992685    
    0.6331388187970567        0.2306303550461718    
    0.6428794160093191        0.2344611637622866    
    0.6526200132215816        0.2382954022808075    
    0.6623606104338440        0.2421315098204364    
    0.6721012076461064        0.2459679506188488    
    0.6818418048583688        0.2498032142931979    
    0.6915824020706312        0.2536358161332609    
    0.7013229992828935        0.2574642973236487    
    0.7110635964951560        0.2612872250985499    
    0.7208041937074184        0.2651031928342015    
    0.7305447909196808        0.2689108200749646    
    0.7402853881319432        0.2727087524996649    
    0.7500259853442056        0.2764956618231682    
    0.7597665825564680        0.2802702456466504    
    0.7695071797687305        0.2840312272507643    
    0.7792477769809929        0.2877773553332660    
    0.7889883741932553        0.2915074036987472    
    0.7987289714055177        0.2952201709044196    
    0.8084695686177801        0.2989144798538670    
    0.8182101658300425        0.3025891773546691    
    0.8279507630423050        0.3062431336384086    
    0.8376913602545674        0.3098752418414080    
    0.8474319574668298        0.3134844174549745    
    0.8571725546790921        0.3170695977482891    
    0.8669131518913545        0.3206297411636342    
    0.8766537491036169        0.3241638266890783    
    0.8863943463158794        0.3276708532159475    
    0.8961349435281418        0.3311498388749051    
    0.9058755407404042        0.3345998203641944    
    0.9156161379526666        0.3380198522690791    
    0.9253567351649290        0.3414090063737079    
    0.9350973323771914        0.3447663709718329    
    0.9448379295894539        0.3480910501796300    
    0.9545785268017163        0.3513821632514300    
    0.9643191240139787        0.3546388439069688    
    0.9740597212262411        0.3578602396636808    
    0.9838003184385035        0.3610455111878037    
    0.9935409156507660        0.3641938316622865    
     1.003281512863028        0.3673043861724812    
     1.013022110075291        0.3703763711115083    
     1.022762707287553        0.3734089936255522    
     1.032503304499816        0.3764014710664879    
     1.042243901712078        0.3793530304849608    
     1.051984498924340        0.3822629081794791    
     1.061725096136603        0.3851303492224309    
     1.071465693348865        0.3879546070799508    
     1.081206290561128        0.3907349432584705    
     1.090946887773390        0.3934706269576505    
     1.100687484985652        0.3961609348168194    
     1.110428082197915        0.3988051506759292    
     1.120168679410177        0.4014025653699866    
     1.129909276622440        0.4039524765974415    
     1.139649873834702        0.4064541888280667    
     1.149390471046964        0.4089070132547764    
     1.159131068259227        0.4113102677793390    
     1.168871665471489        0.4136632770780796    
     1.178612262683752        0.4159653727029649    
     1.188352859896014        0.4182158932152218    
     1.198093457108277        0.4204141843892281    
     1.207834054320539        0.4225595994592403    
     1.217574651532801        0.4246514994131054    
     1.227315248745064        0.4266892533310895    
     1.237055845957326        0.4286722387731688    
     1.246796443169589        0.4305998422201535    
     1.256537040381851        0.4324714595442862    
     1.266277637594113        0.4342864965266446    
     1.276018234806376        0.4360443694244305    
     1.285758832018638        0.4377445055738750    
     1.295499429230901        0.4393863440311910    
     1.305240026443163        0.4409693362450272    
     1.314980623655426        0.4424929467648744    
     1.324721220867688        0.4439566539832387    
     1.334461818079950        0.4453599509071419    
     1.344202415292213        0.4467023459602024    
     1.353943012504475        0.4479833637982293    
     1.363683609716738        0.4492025461502578    
     1.373424206929000        0.4503594526833612    
     1.383164804141262        0.4514536618801452    
     1.392905401353525        0.4524847719284569    
     1.402645998565787        0.4534524016214717    
     1.412386595778049        0.4543561912637026    
     1.422127192990312        0.4551958035817500    
     1.431867790202574        0.4559709246354319    
     1.441608387414837        0.4566812647248478    
     1.451348984627099        0.4573265592923449    
     1.461089581839362        0.4579065698189284    
     1.470830179051624        0.4584210847050398    
     1.480570776263886        0.4588699201308286    
     1.490311373476149        0.4592529209037240    
     1.500051970688411        0.4595699612891568    
     1.509792567900674        0.4598209458086672    
     1.519533165112936        0.4600058100065931    
     1.529273762325198        0.4601245211929536    
     1.539014359537461        0.4601770791540906    
     1.548754956749723        0.4601635168217416    
     1.558495553961986        0.4600839009031284    
     1.568236151174248        0.4599383324692426    
     1.577976748386511        0.4597269474978924    
     1.587717345598773        0.4594499173713211    
     1.597457942811035        0.4591074493234789    
     1.607198540023298        0.4586997868354742    
     1.616939137235560        0.4582272099767754    
     1.626679734447823        0.4576900356908376    
     1.636420331660085        0.4570886180225123    
     1.646160928872348        0.4564233482870012    
     1.655901526084610        0.4556946551788550    
     1.665642123296872        0.4549030048178012    
     1.675382720509135        0.4540489007310858    
     1.685123317721397        0.4531328837721277    
     1.694863914933660        0.4521555319767787    
     1.704604512145922        0.4511174603369096    
     1.714345109358184        0.4500193205301433    
     1.724085706570447        0.4488618006684865    
     1.733826303782709        0.4476456247353302    
     1.743566900994971        0.4463715518643928    
     1.753307498207234        0.4450403765102668    
     1.763048095419496        0.4436529276191125    
     1.772788692631759        0.4422100682014015    
     1.782529289844021        0.4407126932998969    
     1.792269887056284        0.4391617292728263    
     1.802010484268546        0.4375581342998263    
     1.811751081480808        0.4359028973814004    
     1.821491678693071        0.4341970365962923    
     1.831232275905333        0.4324415983032450    
     1.840972873117596        0.4306376558761496    
     1.850713470329858        0.4287863088184107    
     1.860454067542120        0.4268886814298892    
     1.870194664754383        0.4249459215402113    
     1.879935261966645        0.4229591992291754    
     1.889675859178908        0.4209297054748278    
     1.899416456391170        0.4188586507643686    
     1.909157053603433        0.4167472636656822    
     1.918897650815695        0.4145967893624026    
     1.928638248027957        0.4124084881559790    
     1.938378845240220        0.4101836339370806    
     1.948119442452482        0.4079235126303113    
     1.957860039664745        0.4056294206152153    
     1.967600636877007        0.4033026631262980    
     1.977341234089269        0.4009445526371050    
     1.987081831301532        0.3985564072295428    
     1.996822428513794        0.3961395489543010    
     2.006563025726057        0.3936953021837450    
     2.016303622938319        0.3912249919634799    
     2.026044220150581        0.3887299423649043    
     2.035784817362844        0.3862114748359377    
     2.045525414575106        0.3836709065661193    
     2.055266011787369        0.3811095488609624    
     2.065006608999631        0.3785287055343119    
     2.074747206211894        0.3759296713107207    
     2.084487803424156        0.3733137302667816    
     2.094228400636418        0.3706821542790842    
     2.103968997848681        0.3680362015252579    
     2.113709595060943        0.3653771149655234    
     2.123450192273205        0.3627061209134261    
     2.133190789485468        0.3600244276018658    
     2.142931386697730        0.3573332238646841    
     2.152671983909993        0.3546336777834551    
     2.162412581122255        0.3519269354338156    
     2.172153178334518        0.3492141196116837    
     2.181893775546780        0.3464963286626419    
     2.191634372759042        0.3437746354005866    
     2.201374969971305        0.3410500860253549    
     2.211115567183567        0.3383236991397911    
     2.220856164395830        0.3355964647794606    
     2.230596761608092        0.3328693435482049    
     2.240337358820355        0.3301432657976676    
     2.250077956032617        0.3274191308886963    
     2.259818553244879        0.3246978065098321    
     2.269559150457142        0.3219801280665485    
     2.279299747669404        0.3192668981487670    
     2.289040344881667        0.3165588860625956    
     2.298780942093929        0.3138568274187808    
     2.308521539306192        0.3111614238387198    
     2.318262136518454        0.3084733426522118    
     2.328002733730716        0.3057932168817315    
     2.337743330942978        0.3031216448150026    
     2.347483928155241        0.3004591905347638    
     2.357224525367503        0.2978063820777293    
     2.366965122579766        0.2951637152791174    
     2.376705719792028        0.2925316507299499    
     2.386446317004291        0.2899106179415203    
     2.396186914216553        0.2873010079959971    
     2.405927511428815        0.2847031783621853    
     2.415668108641078        0.2821174554375543    
     2.425408705853340        0.2795441327604477    
     2.435149303065603        0.2769834787377740    
     2.444889900277865        0.2744357292630606    
     2.454630497490128        0.2719011117682909    
     2.464371094702390        0.2693798360153279    
     2.474111691914652        0.2668721049755705    
     2.483852289126915        0.2643781064033616    
     2.493592886339177        0.2618980186927867    
     2.503333483551440        0.2594320139428495    
     2.513074080763702        0.2569802516620027    
     2.522814677975965        0.2545428828799970    
     2.532555275188227        0.2521200463901739    
     2.542295872400489        0.2497118739080765    
     2.552036469612752        0.2473184878943497    
     2.561777066825014        0.2449400022807259    
     2.571517664037276        0.2425765230285980    
     2.581258261249539        0.2402281478722953    
     2.590998858461801        0.2378949669102393    
     2.600739455674064        0.2355770627481704    
     2.610480052886326        0.2332745107987715    
     2.620220650098589        0.2309873794852058    
     2.629961247310851        0.2287157304778264    
     2.639701844523113        0.2264596189193184    
     2.649442441735376        0.2242190936422278    
     2.659183038947638        0.2219941973821055    
     2.668923636159901        0.2197849669795716    
     2.678664233372163        0.2175914335891130    
     2.688404830584425        0.2154136228678274    
     2.698145427796688        0.2132515551705804    
     2.707886025008950        0.2111052457257878    
     2.717626622221212        0.2089747048184896    
     2.727367219433475        0.2068599379633167    
     2.737107816645738        0.2047609460710007    
     2.746848413858000        0.2026777256163613    
     2.756589011070262        0.2006102687945817    
     2.766329608282525        0.1985585636776055    
     2.776070205494787        0.1965225943622946    
     2.785810802707049        0.1945023411173899    
     2.795551399919312        0.1924977805249869    
     2.805291997131574        0.1905088856175759    
     2.815032594343837        0.1885356260125413    
     2.824773191556099        0.1865779680412094    
     2.834513788768362        0.1846358748751197    
     2.844254385980624        0.1827093066479080    
     2.853994983192886        0.1807982205741711    
     2.863735580405149        0.1789025710646309    
     2.873476177617411        0.1770223098378584    
     2.883216774829674        0.1751573860289366    
     2.892957372041936        0.1733077462946889    
     2.902697969254199        0.1714733349159245    
     2.912438566466461        0.1696540938964667    
     2.922179163678723        0.1678499630596204    
     2.931919760890985        0.1660608801412820    
     2.941660358103248        0.1642867808807768    
     2.951400955315511        0.1625275991082666    
     2.961141552527773        0.1607832668301545    
     2.970882149740036        0.1590537143117243    
     2.980622746952298        0.1573388701568769    
     2.990363344164560        0.1556386613864121    
     3.000103941376822        0.1539530135129754    
     3.009844538589085        0.1522818506140886    
     3.019585135801347        0.1506250954031165    
     3.029325733013610        0.1489826692974770    
     3.039066330225872        0.1473544924853115    
     3.048806927438135        0.1457404839898514    
     3.058547524650397        0.1441405617316692    
     3.068288121862659        0.1425546425893432    
     3.078028719074922        0.1409826424578518    
     3.087769316287184        0.1394244763053215    
     3.097509913499447        0.1378800582278238    
     3.107250510711709        0.1363493015027034    
     3.116991107923972        0.1348321186399189    
     3.126731705136234        0.1333284214318299    
     3.136472302348496        0.1318381210015896    
     3.146212899560759        0.1303611278494415    
     3.155953496773021        0.1288973518980627    
     3.165694093985283        0.1274467025362445    
     3.175434691197546        0.1260090886607500    
     3.185175288409809        0.1245844187177722    
     3.194915885622071        0.1231726007420079    
     3.204656482834333        0.1217735423948369    
     3.214397080046596        0.1203871510015106    
     3.224137677258858        0.1190133335862499    
     3.233878274471120        0.1176519969070012    
     3.243618871683383        0.1163030474886914    
     3.253359468895645        0.1149663916549619    
     3.263100066107908        0.1136419355597864    
     3.272840663320170        0.1123295852170116    
     3.282581260532432        0.1110292465292489    
     3.292321857744695        0.1097408253160305    
     3.302062454956957        0.1084642273401950    
     3.311803052169220        0.1071993583340822    
     3.321543649381482        0.1059461240245268    
     3.331284246593745        0.1047044301565700    
     3.341024843806007        0.1034741825172011    
     3.350765441018269        0.1022552869573733    
     3.360506038230532        0.1010476494135782    
     3.370246635442794        0.9985117592850060E-01
     3.379987232655056        0.9866577267113695E-01
     3.389727829867319        0.9749134595559743E-01
     3.399468427079581        0.9632780225974971E-01
     3.409209024291844        0.9517504824291299E-01
     3.418949621504106        0.9403299076264639E-01
     3.428690218716369        0.9290153689142903E-01
     3.438430815928631        0.9178059393211682E-01
     3.448171413140893        0.9067006943302458E-01
     3.457912010353156        0.8956987120237103E-01
     3.467652607565418        0.8847990732206046E-01
     3.477393204777681        0.8740008616094276E-01
     3.487133801989943        0.8633031638748200E-01
     3.496874399202206        0.8527050698187268E-01
     3.506614996414468        0.8422056724767359E-01
     3.516355593626730        0.8318040682282368E-01
     3.526096190838993        0.8214993569026380E-01
     3.535836788051255        0.8112906418806956E-01
     3.545577385263518        0.8011770301888572E-01
     3.555317982475780        0.7911576325939559E-01
     3.565058579688043        0.7812315636887406E-01
     3.574799176900305        0.7713979419752867E-01
     3.584539774112567        0.7616558899436683E-01
     3.594280371324829        0.7520045341476041E-01
     3.604020968537092        0.7424430052740470E-01
     3.613761565749354        0.7329704382111625E-01
     3.623502162961617        0.7235859721117463E-01
     3.633242760173879        0.7142887504525401E-01
     3.642983357386142        0.7050779210916308E-01
     3.652723954598404        0.6959526363210747E-01
     3.662464551810666        0.6869120529169516E-01
     3.672205149022929        0.6779553321862893E-01
     3.681945746235191        0.6690816400103752E-01
     3.691686343447454        0.6602901468863656E-01
     3.701426940659716        0.6515800279648544E-01
     3.711167537871979        0.6429504630852576E-01
     3.720908135084241        0.6344006368089297E-01
     3.730648732296503        0.6259297384470354E-01
     3.740389329508766        0.6175369620915770E-01
     3.750129926721028        0.6092215066383196E-01
     3.759870523933291        0.6009825758100971E-01
     3.769611121145553        0.5928193781752336E-01
     3.779351718357816        0.5847311271754640E-01
     3.789092315570078        0.5767170411266490E-01
     3.798832912782340        0.5687763432432253E-01
     3.808573509994603        0.5609082616482215E-01
     3.818314107206865        0.5531120293905554E-01
     3.828054704419127        0.5453868844227820E-01
     3.837795301631390        0.5377320696591546E-01
     3.847535898843652        0.5301468329467252E-01
     3.857276496055915        0.5226304270586846E-01
     3.867017093268177        0.5151821097707472E-01
     3.876757690480439        0.5078011437492350E-01
     3.886498287692702        0.5004867966165795E-01
     3.896238884904964        0.4932383409340050E-01
     3.905979482117227        0.4860550542267827E-01
     3.915720079329489        0.4789362188579446E-01
     3.925460676541752        0.4718811222039883E-01
     3.935201273754014        0.4648890565381750E-01
     3.944941870966276        0.4579593190458399E-01
     3.954682468178539        0.4510912118141314E-01
     3.964423065390801        0.4442840417936899E-01
     3.974163662603064        0.4375371209063415E-01
     3.983904259815326        0.4308497658312840E-01
     3.993644857027589        0.4242212981230380E-01
     4.003385454239851        0.4176510441638220E-01
     4.013126051452113        0.4111383351650671E-01
     4.022866648664376        0.4046825070702577E-01
     4.032607245876638        0.3982829006679113E-01
     4.042347843088900        0.3919388614871225E-01
     4.052088440301163        0.3856497397989431E-01
     4.061829037513426        0.3794148905967582E-01
     4.071569634725687        0.3732336735740175E-01
     4.081310231937950        0.3671054531048591E-01
     4.091050829150213        0.3610295982200895E-01
     4.100791426362475        0.3550054825842026E-01
     4.110532023574738        0.3490324844550609E-01
     4.120272620787000        0.3431099867291283E-01
     4.130013217999262        0.3372373768072360E-01
     4.139753815211525        0.3314140466381708E-01
     4.149494412423787        0.3256393926765628E-01
     4.159235009636049        0.3199128158776710E-01
     4.168975606848312        0.3142337215817004E-01
     4.178716204060574        0.3086015196215548E-01
     4.188456801272837        0.3030156242119612E-01
     4.198197398485100        0.2974754539404769E-01
     4.207937995697361        0.2919804317391379E-01
     4.217678592909624        0.2865299848411524E-01
     4.227419190121886        0.2811235448151312E-01
     4.237159787334149        0.2757605474335822E-01
     4.246900384546411        0.2704404327096135E-01
     4.256640981758673        0.2651626448507067E-01
     4.266381578970936        0.2599266322368343E-01
     4.276122176183199        0.2547318473527074E-01
     4.285862773395460        0.2495777468136613E-01
     4.295603370607723        0.2444637912984800E-01
     4.305343967819986        0.2393894455262964E-01
     4.315084565032248        0.2343541782249639E-01
     4.324825162244511        0.2293574620959025E-01
     4.334565759456773        0.2243987737965498E-01
     4.344306356669035        0.2194775938848098E-01
     4.354046953881298        0.2145934068019838E-01
     4.363787551093560        0.2097457008364951E-01
     4.373528148305822        0.2049339680925385E-01
     4.383268745518085        0.2001577044513749E-01
     4.393009342730347        0.1954164095472768E-01
     4.402749939942610        0.1907095867288211E-01
     4.412490537154872        0.1860367430270025E-01
     4.422231134367134        0.1813973891219565E-01
     4.431971731579397        0.1767910393092050E-01
     4.441712328791660        0.1722172114679056E-01
     4.451452926003922        0.1676754270246798E-01
     4.461193523216184        0.1631652109217630E-01
     4.470934120428447        0.1586860915829641E-01
     4.480674717640709        0.1542376008799914E-01
     4.490415314852972        0.1498192740989441E-01
     4.500155912065233        0.1454306499056511E-01
     4.509896509277496        0.1410712703133639E-01
     4.519637106489759        0.1367406806479923E-01
     4.529377703702021        0.1324384295145317E-01
     4.539118300914284        0.1281640687632817E-01
     4.548858898126546        0.1239171534558911E-01
     4.558599495338808        0.1196972418317467E-01
     4.568340092551071        0.1155038952740366E-01
     4.578080689763333        0.1113366782759806E-01
     4.587821286975595        0.1071951584070496E-01
     4.597561884187858        0.1030789062791643E-01
     4.607302481400120        0.9898749551313086E-02
     4.617043078612383        0.9492050270467923E-02
     4.626783675824645        0.9087750739095556E-02
     4.636524273036907        0.8685809201685095E-02
     4.646264870249170        0.8286184190141297E-02
     4.656005467461433        0.7888834520463140E-02
     4.665746064673695        0.7493719289254087E-02
     4.675486661885957        0.7100797870591295E-02
     4.685227259098220        0.6710029912549603E-02
     4.694967856310482        0.6321375333899840E-02
     4.704708453522745        0.5934794320780852E-02
     4.714449050735007        0.5550247323581485E-02
     4.724189647947269        0.5167695052776010E-02
     4.733930245159532        0.4787098476888837E-02
     4.743670842371794        0.4408418818390198E-02
     4.753411439584056        0.4031617550587493E-02
     4.763152036796319        0.3656656394336872E-02
     4.772892634008581        0.3283497312623441E-02
     4.782633231220844        0.2912102516011055E-02
     4.792373828433107        0.2542434446663878E-02
     4.802114425645368        0.2174455782899553E-02
     4.811855022857631        0.1808129434092016E-02
     4.821595620069894        0.1443418537366896E-02
     4.831336217282156        0.1080285646711703E-02
     4.841076814494418        0.7186958950803639E-03
     4.850817411706680        0.3586126209663560E-03
     4.860558008918943         0.000000000000000    
  1  6  1  0  3.000000   #orbital l, n, z, is_polarized, population
 500    0.1282381396541197E-01     6.399083168740574     # npts, delta, cutoff
     0.000000000000000        0.5401059317874992E-01
    0.1282381396541197E-01    0.5404072386621001E-01
    0.2564762793082394E-01    0.5413106872483960E-01
    0.3847144189623591E-01    0.5428150349183979E-01
    0.5129525586164789E-01    0.5449181900450987E-01
    0.6411906982705987E-01    0.5476172403146929E-01
    0.7694288379247183E-01    0.5509084682744946E-01
    0.8976669775788380E-01    0.5547873707352094E-01
    0.1025905117232958        0.5592486815719803E-01
    0.1154143256887078        0.5642863975387338E-01
    0.1282381396541197        0.5698938064506906E-01
    0.1410619536195317        0.5760635173767466E-01
    0.1538857675849437        0.5827874922570936E-01
    0.1667095815503556        0.5900570784207781E-01
    0.1795333955157676        0.5978630415558407E-01
    0.1923572094811796        0.6061955987942245E-01
    0.2051810234465916        0.6150444514121025E-01
    0.2180048374120035        0.6243988169428854E-01