<preamble>

<basis_specs>
===============================================================================
Bi                   Z=  83    Mass=  208.98        Charge= 0.17977+309
Lmxo=2 Lmxkb= 2    BasisType=split      Semic=T
L=0  Nsemic=0  Cnfigmx=6
          i=1  nzeta=1  polorb=0  (6s)
            splnorm:   0.15000    
               vcte:    0.0000    
               rinn:    0.0000    
               qcoe:    0.0000    
               qyuk:    0.0000    
               qwid:   0.10000E-01
                rcs:    4.8606    
            lambdas:    1.0000    
L=1  Nsemic=0  Cnfigmx=6
          i=1  nzeta=1  polorb=1  (6p)  (to be polarized perturbatively)
            splnorm:   0.15000    
               vcte:    0.0000    
               rinn:    0.0000    
               qcoe:    0.0000    
               qyuk:    0.0000    
               qwid:   0.10000E-01
                rcs:    6.3991    
            lambdas:    1.0000    
L=2  Nsemic=0  Cnfigmx=5
          i=1  nzeta=1  polorb=0  (5d)
            splnorm:   0.15000    
               vcte:    0.0000    
               rinn:    0.0000    
               qcoe:    0.0000    
               qyuk:    0.0000    
               qwid:   0.10000E-01
                rcs:    3.2581    
            lambdas:    1.0000    
-------------------------------------------------------------------------------
L=0  Nkbl=1  erefs: 0.17977+309
L=1  Nkbl=1  erefs: 0.17977+309
L=2  Nkbl=2  erefs: 0.17977+309 0.17977+309
===============================================================================
</basis_specs>

<pseudopotential_header>
 Bi pb rel pcec
 ONCVPSP-3.2018-04-23Hamann's oncvpsp                        
 6s 2.00r r= 2.43/6p 3.00r r= 2.52/5d10.00r r= 2.10/                   
</pseudopotential_header>
</preamble>
Bi                            # Symbol
Bi                            # Label
   83                         # Atomic number
     15.0000000000                             # Valence charge
     208.980000000        # Mass 
     179.502759807        # Self energy 
   2   4                      # Lmax for basis, no. of nl orbitals 
   2  10 T                    # Lmax for projectors, no. of nl KB projectors, LJ projs?
# PAOs:__________________________
  0  6  1  0  2.000000   #orbital l, n, z, is_polarized, population
 500    0.9740597212269320E-02     4.860558008922391     # npts, delta, cutoff
     0.000000000000000        0.7159346852795430E-01
    0.9740597212269320E-02    0.7164097558104750E-01
    0.1948119442453864E-01    0.7178366183608935E-01
    0.2922179163680796E-01    0.7202135867073299E-01
    0.3896238884907728E-01    0.7235389586882858E-01
    0.4870298606134660E-01    0.7278103547316778E-01
    0.5844358327361592E-01    0.7330247212875377E-01
    0.6818418048588525E-01    0.7391783352325336E-01
    0.7792477769815456E-01    0.7462668092329151E-01
    0.8766537491042388E-01    0.7542850980531038E-01
    0.9740597212269320E-01    0.7632275057952675E-01
    0.1071465693349625        0.7730876940531423E-01
    0.1168871665472318        0.7838586909613404E-01
    0.1266277637595012        0.7955329011193754E-01
    0.1363683609717705        0.8081021163676966E-01
    0.1461089581840398        0.8215575273911939E-01
    0.1558495553963091        0.8358897361237699E-01
    0.1655901526085785        0.8510887689259274E-01
    0.1753307498208478        0.8671440905056126E-01
    0.1850713470331171        0.8840446185510253E-01
    0.1948119442453864        0.9017787390425928E-01
    0.2045525414576557        0.9203343222099311E-01
    0.2142931386699251        0.9396987390983065E-01
    0.2240337358821944        0.9598588787078306E-01
    0.2337743330944637        0.9808011656676177E-01
    0.2435149303067330        0.1002511578405957    
    0.2532555275190023        0.1024975667776760    
    0.2629961247312717        0.1048178576101601    
    0.2727367219435410        0.1072105056586038    
    0.2824773191558103        0.1096739493068207    
    0.2922179163680796        0.1122065920057230    
    0.3019585135803489        0.1148068043018544    
    0.3116991107926183        0.1174729258862968    
    0.3214397080048876        0.1202032676596170    
    0.3311803052171569        0.1229961138085085    
    0.3409209024294262        0.1258497238897940    
    0.3506614996416955        0.1287623349174621    
    0.3604020968539648        0.1317321634484468    
    0.3701426940662342        0.1347574076628890    
    0.3798832912785035        0.1378362494346725    
    0.3896238884907728        0.1409668563880856    
    0.3993644857030421        0.1441473839365250    
    0.4091050829153114        0.1473759772992530    
    0.4188456801275808        0.1506507734922881    
    0.4285862773398501        0.1539699032896311    
    0.4383268745521194        0.1573314931511262    
    0.4480674717643887        0.1607336671133801    
    0.4578080689766580        0.1641745486402908    
    0.4675486661889274        0.1676522624298765    
    0.4772892634011967        0.1711649361742325    
    0.4870298606134660        0.1747107022696068    
    0.4967704578257353        0.1782876994737428    
    0.5065110550380046        0.1818940745077924    
    0.5162516522502740        0.1855279836002963    
    0.5259922494625433        0.1891875939708896    
    0.5357328466748126        0.1928710852515841    
    0.5454734438870820        0.1965766508436636    
    0.5552140410993512        0.2003024992084201    
    0.5649546383116206        0.2040468550901665    
    0.5746952355238899        0.2078079606701382    
    0.5844358327361592        0.2115840766501212    
    0.5941764299484286        0.2153734832648387    
    0.6039170271606978        0.2191744812223242    
    0.6136576243729672        0.2229853925717345    
    0.6233982215852365        0.2268045614982371    
    0.6331388187975058        0.2306303550448426    
    0.6428794160097752        0.2344611637612182    
    0.6526200132220444        0.2382954022797655    
    0.6623606104343138        0.2421315098193977    
    0.6721012076465831        0.2459679506176993    
    0.6818418048588524        0.2498032142922970    
    0.6915824020711218        0.2536358161325055    
    0.7013229992833910        0.2574642973224530    
    0.7110635964956604        0.2612872250971200    
    0.7208041937079297        0.2651031928328612    
    0.7305447909201990        0.2689108200741619    
    0.7402853881324684        0.2727087524985677    
    0.7500259853447376        0.2764956618218322    
    0.7597665825570070        0.2802702456455380    
    0.7695071797692763        0.2840312272495352    
    0.7792477769815456        0.2877773553317054    
    0.7889883741938150        0.2915074036976767    
    0.7987289714060842        0.2952201709032317    
    0.8084695686183536        0.2989144798522644    
    0.8182101658306229        0.3025891773532201    
    0.8279507630428923        0.3062431336370774    
    0.8376913602551616        0.3098752418399754    
    0.8474319574674308        0.3134844174536731    
    0.8571725546797002        0.3170695977471097    
    0.8669131518919695        0.3206297411623362    
    0.8766537491042389        0.3241638266881618    
    0.8863943463165082        0.3276708532149038    
    0.8961349435287774        0.3311498388735858    
    0.9058755407410468        0.3345998203630035    
    0.9156161379533161        0.3380198522680494    
    0.9253567351655855        0.3414090063726506    
    0.9350973323778548        0.3447663709706934    
    0.9448379295901240        0.3480910501782567    
    0.9545785268023934        0.3513821632504108    
    0.9643191240146627        0.3546388439058355    
    0.9740597212269321        0.3578602396624017    
    0.9838003184392013        0.3610455111868069    
    0.9935409156514706        0.3641938316612825    
     1.003281512863740        0.3673043861702876    
     1.013022110076009        0.3703763711100079    
     1.022762707288279        0.3734089936233737    
     1.032503304500548        0.3764014710631960    
     1.042243901712817        0.3793530304858980    
     1.051984498925087        0.3822629081781830    
     1.061725096137356        0.3851303492188424    
     1.071465693349625        0.3879546070777861    
     1.081206290561895        0.3907349432541994    
     1.090946887774164        0.3934706269555783    
     1.100687484986433        0.3961609348192726    
     1.110428082198702        0.3988051506779524    
     1.120168679410972        0.4014025653702706    
     1.129909276623241        0.4039524765978281    
     1.139649873835511        0.4064541888293705    
     1.149390471047780        0.4089070132529550    
     1.159131068260049        0.4113102677766426    
     1.168871665472318        0.4136632770781194    
     1.178612262684588        0.4159653727034578    
     1.188352859896857        0.4182158932150491    
     1.198093457109126        0.4204141843885263    
     1.207834054321396        0.4225595994583558    
     1.217574651533665        0.4246514994115784    
     1.227315248745934        0.4266892533290369    
     1.237055845958204        0.4286722387731883    
     1.246796443170473        0.4305998422214588    
     1.256537040382742        0.4324714595439799    
     1.266277637595012        0.4342864965242998    
     1.276018234807281        0.4360443694215524    
     1.285758832019550        0.4377445055723869    
     1.295499429231820        0.4393863440308228    
     1.305240026444089        0.4409693362441056    
     1.314980623656358        0.4424929467623762    
     1.324721220868628        0.4439566539799338    
     1.334461818080897        0.4453599509057276    
     1.344202415293166        0.4467023459605984    
     1.353943012505435        0.4479833637986761    
     1.363683609717705        0.4492025461502063    
     1.373424206929974        0.4503594526830412    
     1.383164804142244        0.4514536618799108    
     1.392905401354513        0.4524847719285860    
     1.402645998566782        0.4534524016218215    
     1.412386595779051        0.4543561912640790    
     1.422127192991321        0.4551958035818983    
     1.431867790203590        0.4559709246347337    
     1.441608387415859        0.4566812647231548    
     1.451348984628129        0.4573265592911002    
     1.461089581840398        0.4579065698190725    
     1.470830179052667        0.4584210847049794    
     1.480570776264937        0.4588699201295345    
     1.490311373477206        0.4592529209029139    
     1.500051970689475        0.4595699612896549    
     1.509792567901745        0.4598209458085603    
     1.519533165114014        0.4600058100046760    
     1.529273762326283        0.4601245211902359    
     1.539014359538553        0.4601770791517630    
     1.548754956750822        0.4601635168203523    
     1.558495553963091        0.4600839009024793    
     1.568236151175361        0.4599383324685985    
     1.577976748387630        0.4597269474969495    
     1.587717345599899        0.4594499173702090    
     1.597457942812168        0.4591074493225447    
     1.607198540024438        0.4586997868348973    
     1.616939137236707        0.4582272099764576    
     1.626679734448977        0.4576900356902803    
     1.636420331661246        0.4570886180213746    
     1.646160928873515        0.4564233482854914    
     1.655901526085785        0.4556946551772574    
     1.665642123298054        0.4549030048161724    
     1.675382720510323        0.4540489007294494    
     1.685123317722592        0.4531328837705703    
     1.694863914934862        0.4521555319753257    
     1.704604512147131        0.4511174603353725    
     1.714345109359400        0.4500193205283656    
     1.724085706571670        0.4488618006667828    
     1.733826303783939        0.4476456247341113    
     1.743566900996208        0.4463715518634348    
     1.753307498208478        0.4450403765091885    
     1.763048095420747        0.4436529276176286    
     1.772788692633016        0.4422100681999522    
     1.782529289845286        0.4407126932988757    
     1.792269887057555        0.4391617292719392    
     1.802010484269824        0.4375581342987019    
     1.811751081482094        0.4359028973801972    
     1.821491678694363        0.4341970365952306    
     1.831232275906632        0.4324415983024993    
     1.840972873118901        0.4306376558754855    
     1.850713470331171        0.4287863088176162    
     1.860454067543440        0.4268886814290376    
     1.870194664755710        0.4249459215394173    
     1.879935261967979        0.4229591992284362    
     1.889675859180248        0.4209297054741198    
     1.899416456392518        0.4188586507636472    
     1.909157053604787        0.4167472636649564    
     1.918897650817056        0.4145967893616783    
     1.928638248029325        0.4124084881552404    
     1.938378845241595        0.4101836339363165    
     1.948119442453864        0.4079235126295159    
     1.957860039666133        0.4056294206144018    
     1.967600636878403        0.4033026631254841    
     1.977341234090672        0.4009445526363097    
     1.987081831302941        0.3985564072287801    
     1.996822428515211        0.3961395489535769    
     2.006563025727480        0.3936953021830483    
     2.016303622939749        0.3912249919627945    
     2.026044220152019        0.3887299423642270    
     2.035784817364288        0.3862114748352644    
     2.045525414576557        0.3836709065654469    
     2.055266011788826        0.3811095488602790    
     2.065006609001096        0.3785287055336124    
     2.074747206213365        0.3759296713099929    
     2.084487803425635        0.3733137302660307    
     2.094228400637904        0.3706821542783238    
     2.103968997850173        0.3680362015245829    
     2.113709595062442        0.3653771149650050    
     2.123450192274712        0.3627061209131138    
     2.133190789486981        0.3600244276016490    
     2.142931386699250        0.3573332238644698    
     2.152671983911520        0.3546336777831683    
     2.162412581123789        0.3519269354335361    
     2.172153178336059        0.3492141196115024    
     2.181893775548328        0.3464963286625631    
     2.191634372760597        0.3437746354005964    
     2.201374969972866        0.3410500860253955    
     2.211115567185136        0.3383236991398391    
     2.220856164397405        0.3355964647794633    
     2.230596761609674        0.3328693435481266    
     2.240337358821944        0.3301432657973660    
     2.250077956034213        0.3274191308881122    
     2.259818553246483        0.3246978065089360    
     2.269559150458752        0.3219801280656419    
     2.279299747671021        0.3192668981480642    
     2.289040344883290        0.3165588860622993    
     2.298780942095560        0.3138568274185771    
     2.308521539307829        0.3111614238383998    
     2.318262136520098        0.3084733426515451    
     2.328002733732367        0.3057932168810883    
     2.337743330944637        0.3031216448145978    
     2.347483928156906        0.3004591905348175    
     2.357224525369176        0.2978063820777992    
     2.366965122581445        0.2951637152789007    
     2.376705719793714        0.2925316507291267    
     2.386446317005984        0.2899106179403886    
     2.396186914218253        0.2873010079947921    
     2.405927511430522        0.2847031783612199    
     2.415668108642791        0.2821174554367527    
     2.425408705855061        0.2795441327597684    
     2.435149303067330        0.2769834787370978    
     2.444889900279599        0.2744357292624185    
     2.454630497491869        0.2719011117676793    
     2.464371094704138        0.2693798360147733    
     2.474111691916407        0.2668721049750500    
     2.483852289128677        0.2643781064028811    
     2.493592886340946        0.2618980186923541    
     2.503333483553215        0.2594320139425280    
     2.513074080765485        0.2569802516618496    
     2.522814677977754        0.2545428828800603    
     2.532555275190023        0.2521200463904696    
     2.542295872402293        0.2497118739085802    
     2.552036469614562        0.2473184878949901    
     2.561777066826831        0.2449400022814146    
     2.571517664039101        0.2425765230291406    
     2.581258261251370        0.2402281478725566    
     2.590998858463639        0.2378949669100885    
     2.600739455675908        0.2355770627477418    
     2.610480052888178        0.2332745107981921    
     2.620220650100447        0.2309873794846970    
     2.629961247312716        0.2287157304773648    
     2.639701844524986        0.2264596189189115    
     2.649442441737255        0.2242190936418766    
     2.659183038949525        0.2219941973817534    
     2.668923636161794        0.2197849669794395    
     2.678664233374063        0.2175914335892872    
     2.688404830586332        0.2154136228684532    
     2.698145427798602        0.2132515551713241    
     2.707886025010871        0.2111052457263946    
     2.717626622223140        0.2089747048187388    
     2.727367219435409        0.2068599379629808    
     2.737107816647679        0.2047609460704050    
     2.746848413859948        0.2026777256157155    
     2.756589011072218        0.2006102687942270    
     2.766329608284487        0.1985585636773911    
     2.776070205496756        0.1965225943621358    
     2.785810802709026        0.1945023411171700    
     2.795551399921295        0.1924977805245284    
     2.805291997133564        0.1905088856170174    
     2.815032594345833        0.1885356260119445    
     2.824773191558103        0.1865779680407017    
     2.834513788770372        0.1846358748746631    
     2.844254385982642        0.1827093066474905    
     2.853994983194911        0.1807982205737662    
     2.863735580407180        0.1789025710641988    
     2.873476177619450        0.1770223098374083    
     2.883216774831719        0.1751573860284826    
     2.892957372043988        0.1733077462942656    
     2.902697969256257        0.1714733349155630    
     2.912438566468527        0.1696540938962744    
     2.922179163680796        0.1678499630596584    
     2.931919760893066        0.1660608801416417    
     2.941660358105335        0.1642867808813386    
     2.951400955317604        0.1625275991089275    
     2.961141552529873        0.1607832668308028    
     2.970882149742143        0.1590537143121949    
     2.980622746954412        0.1573388701572400    
     2.990363344166681        0.1556386613867048    
     3.000103941378951        0.1539530135132534    
     3.009844538591220        0.1522818506144569    
     3.019585135803489        0.1506250954035130    
     3.029325733015759        0.1489826692978778    
     3.039066330228028        0.1473544924856834    
     3.048806927440297        0.1457404839901431    
     3.058547524652567        0.1441405617319023    
     3.068288121864836        0.1425546425895300    
     3.078028719077105        0.1409826424580180    
     3.087769316289374        0.1394244763054875    
     3.097509913501644        0.1378800582280520    
     3.107250510713913        0.1363493015030272    
     3.116991107926182        0.1348321186403486    
     3.126731705138452        0.1333284214323932    
     3.136472302350721        0.1318381210021463    
     3.146212899562991        0.1303611278499023    
     3.155953496775260        0.1288973518983525    
     3.165694093987529        0.1274467025362523    
     3.175434691199798        0.1260090886606063    
     3.185175288412068        0.1245844187175507    
     3.194915885624337        0.1231726007417881    
     3.204656482836606        0.1217735423947585    
     3.214397080048876        0.1203871510014795    
     3.224137677261145        0.1190133335862381    
     3.233878274473414        0.1176519969069766    
     3.243618871685684        0.1163030474885585    
     3.253359468897953        0.1149663916548397    
     3.263100066110222        0.1136419355597279    
     3.272840663322492        0.1123295852170658    
     3.282581260534761        0.1110292465295223    
     3.292321857747030        0.1097408253164114    
     3.302062454959299        0.1084642273406205    
     3.311803052171569        0.1071993583344815    
     3.321543649383838        0.1059461240247635    
     3.331284246596108        0.1047044301567037    
     3.341024843808377        0.1034741825172541    
     3.350765441020646        0.1022552869573822    
     3.360506038232915        0.1010476494135819    
     3.370246635445185        0.9985117592857885E-01
     3.379987232657454        0.9866577267121084E-01
     3.389727829869723        0.9749134595564091E-01
     3.399468427081993        0.9632780225973575E-01
     3.409209024294262        0.9517504824278275E-01
     3.418949621506532        0.9403299076245746E-01
     3.428690218718801        0.9290153689121157E-01
     3.438430815931070        0.9178059393190925E-01
     3.448171413143339        0.9067006943288132E-01
     3.457912010355609        0.8956987120230769E-01
     3.467652607567878        0.8847990732209392E-01
     3.477393204780147        0.8740008616107685E-01
     3.487133801992417        0.8633031638770629E-01
     3.496874399204686        0.8527050698217992E-01
     3.506614996416956        0.8422056724800372E-01
     3.516355593629225        0.8318040682313166E-01
     3.526096190841494        0.8214993569050909E-01
     3.535836788053763        0.8112906418818694E-01
     3.545577385266033        0.8011770301891102E-01
     3.555317982478302        0.7911576325935001E-01
     3.565058579690571        0.7812315636879018E-01
     3.574799176902840        0.7713979419744359E-01
     3.584539774115110        0.7616558899434100E-01
     3.594280371327379        0.7520045341478052E-01
     3.604020968539649        0.7424430052747513E-01
     3.613761565751918        0.7329704382123249E-01
     3.623502162964187        0.7235859721132136E-01
     3.633242760176457        0.7142887504542057E-01
     3.642983357388726        0.7050779210933454E-01
     3.652723954600995        0.6959526363227041E-01
     3.662464551813264        0.6869120529183984E-01
     3.672205149025534        0.6779553321873484E-01
     3.681945746237803        0.6690816400112888E-01
     3.691686343450072        0.6602901468872707E-01
     3.701426940662342        0.6515800279659018E-01
     3.711167537874611        0.6429504630865811E-01
     3.720908135086880        0.6344006368108865E-01
     3.730648732299150        0.6259297384492489E-01
     3.740389329511419        0.6175369620939090E-01
     3.750129926723688        0.6092215066406249E-01
     3.759870523935958        0.6009825758122576E-01
     3.769611121148227        0.5928193781768416E-01
     3.779351718360496        0.5847311271770651E-01
     3.789092315572766        0.5767170411284221E-01
     3.798832912785035        0.5687763432453246E-01
     3.808573509997304        0.5609082616507263E-01
     3.818314107209574        0.5531120293938350E-01
     3.828054704421843        0.5453868844260322E-01
     3.837795301634112        0.5377320696619878E-01
     3.847535898846381        0.5301468329487545E-01
     3.857276496058651        0.5226304270591562E-01
     3.867017093270920        0.5151821097699807E-01
     3.876757690483189        0.5078011437473431E-01
     3.886498287695459        0.5004867966137993E-01
     3.896238884907728        0.4932383409306619E-01
     3.905979482119998        0.4860550542234678E-01
     3.915720079332267        0.4789362188547538E-01
     3.925460676544536        0.4718811222011640E-01
     3.935201273756805        0.4648890565359046E-01
     3.944941870969075        0.4579593190442497E-01
     3.954682468181344        0.4510912118132830E-01
     3.964423065393613        0.4442840417935867E-01
     3.974163662605882        0.4375371209069318E-01
     3.983904259818152        0.4308497658324763E-01
     3.993644857030421        0.4242212981247151E-01
     4.003385454242690        0.4176510441658522E-01
     4.013126051454960        0.4111383351672095E-01
     4.022866648667229        0.4046825070725533E-01
     4.032607245879499        0.3982829006702765E-01
     4.042347843091768        0.3919388614894709E-01
     4.052088440304037        0.3856497398011786E-01
     4.061829037516307        0.3794148905989854E-01
     4.071569634728576        0.3732336735758114E-01
     4.081310231940845        0.3671054531060412E-01
     4.091050829153114        0.3610295982205262E-01
     4.100791426365384        0.3550054825838275E-01
     4.110532023577653        0.3490324844535256E-01
     4.120272620789923        0.3431099867270383E-01
     4.130013218002192        0.3372373768048988E-01
     4.139753815214461        0.3314140466359164E-01
     4.149494412426731        0.3256393926746970E-01
     4.159235009639000        0.3199128158768737E-01
     4.168975606851269        0.3142337215815729E-01
     4.178716204063538        0.3086015196219850E-01
     4.188456801275808        0.3030156242127545E-01
     4.198197398488077        0.2974754539413914E-01
     4.207937995700346        0.2919804317399193E-01
     4.217678592912615        0.2865299848413073E-01
     4.227419190124885        0.2811235448148752E-01
     4.237159787337155        0.2757605474328951E-01
     4.246900384549424        0.2704404327085297E-01
     4.256640981761693        0.2651626448493064E-01
     4.266381578973962        0.2599266322352600E-01
     4.276122176186232        0.2547318473510483E-01
     4.285862773398501        0.2495777468120355E-01
     4.295603370610770        0.2444637912969903E-01
     4.305343967823039        0.2393894455250177E-01
     4.315084565035309        0.2343541782239318E-01
     4.324825162247579        0.2293574620952811E-01
     4.334565759459847        0.2243987737960383E-01
     4.344306356672117        0.2194775938842759E-01
     4.354046953884386        0.2145934068012911E-01
     4.363787551096656        0.2097457008355227E-01
     4.373528148308925        0.2049339680909121E-01
     4.383268745521194        0.2001577044494140E-01
     4.393009342733463        0.1954164095450773E-01
     4.402749939945733        0.1907095867265075E-01
     4.412490537158003        0.1860367430247094E-01
     4.422231134370271        0.1813973891198096E-01
     4.431971731582541        0.1767910393075538E-01
     4.441712328794810        0.1722172114664629E-01
     4.451452926007080        0.1676754270233843E-01
     4.461193523219348        0.1631652109205270E-01
     4.470934120431618        0.1586860915816871E-01
     4.480674717643887        0.1542376008785757E-01
     4.490415314856157        0.1498192740971660E-01
     4.500155912068426        0.1454306499036604E-01
     4.509896509280695        0.1410712703111770E-01
     4.519637106492965        0.1367406806456504E-01
     4.529377703705234        0.1324384295120969E-01
     4.539118300917504        0.1281640687608485E-01
     4.548858898129772        0.1239171534535207E-01
     4.558599495342042        0.1196972418295176E-01
     4.568340092554311        0.1155038952720214E-01
     4.578080689766581        0.1113366782742388E-01
     4.587821286978849        0.1071951584056237E-01
     4.597561884191119        0.1030789062781626E-01
     4.607302481403389        0.9898749551244739E-02
     4.617043078615658        0.9492050270426976E-02
     4.626783675827927        0.9087750739076139E-02
     4.636524273040196        0.8685809201680859E-02
     4.646264870252466        0.8286184190145917E-02
     4.656005467464735        0.7888834520464755E-02
     4.665746064677005        0.7493719289256457E-02
     4.675486661889273        0.7100797870593637E-02
     4.685227259101543        0.6710029912552580E-02
     4.694967856313812        0.6321375333905300E-02
     4.704708453526082        0.5934794320791247E-02
     4.714449050738351        0.5550247323607702E-02
     4.724189647950620        0.5167695052810386E-02
     4.733930245162890        0.4787098476929962E-02
     4.743670842375159        0.4408418818435310E-02
     4.753411439587429        0.4031617550632255E-02
     4.763152036799697        0.3656656394375736E-02
     4.772892634011967        0.3283497312638486E-02
     4.782633231224236        0.2912102516007365E-02
     4.792373828436506        0.2542434446638052E-02
     4.802114425648775        0.2174455782849813E-02
     4.811855022861044        0.1808129434019021E-02
     4.821595620073314        0.1443418537274328E-02
     4.831336217285583        0.1080285646627762E-02
     4.841076814497852        0.7186958949988473E-03
     4.850817411710121        0.3586126208988880E-03
     4.860558008922391         0.000000000000000    
  1  6  1  0  3.000000   #orbital l, n, z, is_polarized, population
 500    0.1282381396542107E-01     6.399083168745114     # npts, delta, cutoff
     0.000000000000000        0.5401059317729416E-01
    0.1282381396542107E-01    0.5404072386508597E-01
    0.2564762793084214E-01    0.5413106872421047E-01
    0.3847144189626321E-01    0.5428150349103693E-01
    0.5129525586168428E-01    0.5449181900381232E-01
    0.6411906982710534E-01    0.5476172403077807E-01
    0.7694288379252642E-01    0.5509084682683540E-01
    0.8976669775794749E-01    0.5547873707282596E-01
    0.1025905117233686        0.5592486815722016E-01
    0.1154143256887896        0.5642863975367216E-01
    0.1282381396542107        0.5698938064430557E-01
    0.1410619536196318        0.5760635173701465E-01
    0.1538857675850528        0.5827874922531951E-01
    0.1667095815504739        0.5900570784122092E-01
    0.1795333955158950        0.5978630415479295E-01
    0.1923572094813160        0.6061955987865383E-01
    0.2051810234467371        0.6150444514063600E-01
    0.2180048374121582        0.6243988169365380E-01