Siesta Version  : siesta-psml-778-608
Architecture    : gfortran-gridxc-0.8.5-legacy
Compiler version: GNU Fortran (Ubuntu 7.4.0-1ubuntu1~18.04.1) 7.4.0
Compiler flags  : mpif90 -O2 -fbacktrace
PP flags        : -DCDF -DNCDF -DNCDF_3  -DMPI -DMPI_TIMING  -DF2003
Libraries       : libncdf.a libfdict.a -lnetcdff -lnetcdf -lhdf5_hl -lhdf5 -lz /opt/intel/mkl/llib/intel64/libmkl_scalapack_lp64.a -Wl,--start-group /opt/intel/mkl/lib/intel64/libmkl_gf_lp64.a /opt/intel/mkl/lib/intel64/libmkl_sequential.a /opt/intel/mkl/lib/intel64/libmkl_core.a /opt/intel/mkl/lib/intel64/libmkl_blacs_openmpi_lp64.a -Wl,--end-group -lpthread -lm -ldl  libncdf.a libfdict.a
Directory       : /mnt/c/Users/nilsw/Projects/2019/Schools/Scripts/TopologicalInvariants/Examples/work
PARALLEL version
NetCDF support

* Running in serial mode with MPI
>> Start of run:  16-FEB-2020  17:57:01

                           ***********************       
                           *  WELCOME TO SIESTA  *       
                           ***********************       

reinit: Reading from standard input
reinit: Dumped input in INPUT_TMP.85846
************************** Dump of input data file ****************************
############### System info ###############
SystemName        Bi2D_BHex
SystemLabel       Bi2D_BHex
########### Geometrical info ##############
LatticeConstant 1.0 Ang
%block LatticeVectors
  4.59844923  0.00000000  0.00000000
 -2.29922485  3.98237426  0.00000000
  0.00000000  0.00000000 46.00000000
%endblock LatticeVectors
NumberOfAtoms 2
AtomicCoordinatesFormat Ang
%block AtomicCoordinatesAndAtomicSpecies
  2.29922624  1.32745708  1.18219081 1 # 1: Bi
  0.00000056 -0.00000038  2.81469112 1 # 2: Bi
%endblock AtomicCoordinatesAndAtomicSpecies
NumberOfSpecies 1
%block ChemicalSpeciesLabel
 1 83 Bi
%endblock ChemicalSpeciesLabel
################ Basis set ##################
%block PAO.Basis
Bi                    3                    # Species label, number of l-shells
 n=6   0   1                         # n, l, Nzeta
   4.861
   1.000
 n=6   1   1 P   1                   # n, l, Nzeta, Polarization, NzetaPol
   6.399
   1.000
 n=5   2   1                         # n, l, Nzeta
   3.258
   1.000
%endblock PAO.Basis
#### Exchange-Correlation functional ########
xc.functional         GGA
xc.authors            PBE
########### Magnetic option #############
Spin            spin-orbit           # (default)
################ SCF options #############
SCF.Mix                 Hamiltonian  # (default) Hamiltonian
SCF.Mix.First           F            # (default) true
SCF.Mixer.Method        Pulay        # (default) Pulay
SCF.Mixer.Weight        0.25         # (default) 0.25
SCF.Mixer.History       5            # (default) 2
SCF.Mixer.Kick          0            # (default) 0
SCF.DM.Converge         T            # (default) true
SCF.DM.Tolerance        1.0d-4       # (default) 1.0d-4
############# Reciprocal grid #############
%block kgrid.MonkhorstPack
 15   0  0  0.5
  0  15  0  0.5
  0   0  1  0.5
%endblock kgrid.MonkhorstPack
############ MISCELLANEOUS ##############
ElectronicTemperature   10 meV
MeshCutoff             500 Ry
################ MD options #############
MD.UseSaveXV         T               # (default) false
SaveHS T
************************** End of input data file *****************************

reinit: -----------------------------------------------------------------------
reinit: System Name: Bi2D_BHex
reinit: -----------------------------------------------------------------------
reinit: System Label: Bi2D_BHex
reinit: -----------------------------------------------------------------------

initatom: Reading input for the pseudopotentials and atomic orbitals ----------
Species number:   1 Atomic number:   83 Label: Bi

Ground state valence configuration:   6s02  6p03

Reading pseudopotential from: Bi.psml

PSML file version: 1.1
Using libxc ids:  101 130
GGA--PBE XC_GGA_X_PBE--XC_GGA_C_PBE pb
 Using ATOM defaults for log grid...
PSML uuid: 1d199580-4728-11e8-74b9-45df666a9ad3
Dumping pseudopotential information in formatted form in Bi.psdump
Semicore shell(s) with 10 electrons included in the valence for
Bi
For Bi, standard SIESTA heuristics set lmxkb to 3
 (one more than the basis l, including polarization orbitals).
Use PS.lmax or PS.KBprojectors blocks to override.
Bi: nkbl increased for l=2 due to the presence of a polarization orbital
Bi pseudopotential only contains V_ls up to l=2 -- lmxkb reset.

<basis_specs>
===============================================================================
Bi                   Z=  83    Mass=  208.98        Charge= 0.17977+309
Lmxo=2 Lmxkb= 2    BasisType=split      Semic=T
L=0  Nsemic=0  Cnfigmx=6
          i=1  nzeta=1  polorb=0  (6s)
            splnorm:   0.15000    
               vcte:    0.0000    
               rinn:    0.0000    
               qcoe:    0.0000    
               qyuk:    0.0000    
               qwid:   0.10000E-01
                rcs:    4.8610    
            lambdas:    1.0000    
L=1  Nsemic=0  Cnfigmx=6
          i=1  nzeta=1  polorb=1  (6p)  (to be polarized perturbatively)
            splnorm:   0.15000    
               vcte:    0.0000    
               rinn:    0.0000    
               qcoe:    0.0000    
               qyuk:    0.0000    
               qwid:   0.10000E-01
                rcs:    6.3990    
            lambdas:    1.0000    
L=2  Nsemic=0  Cnfigmx=5
          i=1  nzeta=1  polorb=0  (5d)
            splnorm:   0.15000    
               vcte:    0.0000    
               rinn:    0.0000    
               qcoe:    0.0000    
               qyuk:    0.0000    
               qwid:   0.10000E-01
                rcs:    3.2580    
            lambdas:    1.0000    
-------------------------------------------------------------------------------
L=0  Nkbl=1  erefs: 0.17977+309
L=1  Nkbl=1  erefs: 0.17977+309
L=2  Nkbl=2  erefs: 0.17977+309 0.17977+309
===============================================================================
</basis_specs>

atom: Called for Bi                    (Z =  83)

read_vps: Pseudopotential generation method:
read_vps: ONCVPSP-3.Hamann's oncvpsp                        
Total valence charge:   15.00000

read_vps: Pseudopotential includes a core correction:
read_vps: Pseudo-core for xc-correction

xc_check: Exchange-correlation functional:
xc_check: GGA Perdew, Burke & Ernzerhof 1996
Got Vlocal (oncv-fit) from psml data
Choosing vlocal chloc cutoff:  4.131548
qtot up to nchloc:   15.00179647
atom: Maximum radius forchloc:    4.13155
atom: Maximum radius for r*vlocal+2*Zval:    4.13155
Reading KB projs from Bi psml data
Using lj projectors in PSML file

PSML: Kleinman-Bylander projectors: 
   l= 0   rc=  2.474770   Ekb=  1.712941
   l= 0   rc=  2.474770   Ekb= 11.335126
j- l= 1   rc=  2.569337   Ekb=  1.346984
j+ l= 1   rc=  2.569337   Ekb=  0.959914
j- l= 1   rc=  2.569337   Ekb=  9.277226
j+ l= 1   rc=  2.569337   Ekb=  8.466419
j- l= 2   rc=  2.130050   Ekb= -7.269185
j+ l= 2   rc=  2.130050   Ekb= -6.624556
j- l= 2   rc=  2.130050   Ekb= -1.636120
j+ l= 2   rc=  2.130050   Ekb= -1.401486

PSML: Total number of  Kleinman-Bylander projectors:  34
atom: -------------------------------------------------------------------------

atom: SANKEY-TYPE ORBITALS:

SPLIT: Orbitals with angular momentum L= 0

SPLIT: Basis orbitals for state 6s

   izeta = 1
                 lambda =    1.000000
                     rc =    4.860558
                 energy =   -1.040630
                kinetic =    0.659530
    potential(screened) =   -1.700160
       potential(ionic) =  -14.393872

SPLIT: Orbitals with angular momentum L= 1

SPLIT: Basis orbitals for state 6p

   izeta = 1
                 lambda =    1.000000
                     rc =    6.399083
                 energy =   -0.317260
                kinetic =    0.736876
    potential(screened) =   -1.054136
       potential(ionic) =  -11.346061

SPLIT: Orbitals with angular momentum L= 2

SPLIT: Basis orbitals for state 5d

   izeta = 1
                 lambda =    1.000000
                     rc =    3.258120
                 energy =   -1.959391
                kinetic =    7.659278
    potential(screened) =   -9.618668
       potential(ionic) =  -26.283006

POLgen: Perturbative polarization orbital with L=  2

POLgen: Polarization orbital for state 6p

   izeta = 1
                     rc =    6.399083
                 energy =    0.269870
                kinetic =    1.171687
    potential(screened) =   -0.901817
       potential(ionic) =  -10.315337
atom: Total number of Sankey-type orbitals: 14

atm_pop: Valence configuration (for local Pseudopot. screening):
 6s( 2.00)                                                            
 6p( 3.00)                                                            
 5d(10.00) 6d( 0.00)                                                  
Vna: chval, zval:   15.00000  15.00000

Vna:  Cut-off radius for the neutral-atom potential:   6.399083
comcore: Pseudo-core radius Rcore=  3.258120

atom: _________________________________________________________________________

prinput: Basis input 
* WARNING: This information might be incomplete!!!
----------------------------------------------------------

PAO.BasisType split     

%block ChemicalSpeciesLabel
    1   83 Bi                      # Species index, atomic number, species label
%endblock ChemicalSpeciesLabel

%block PAO.Basis                 # Define Basis set
# WARNING: This information might be incomplete!!!
Bi                    3                    # Species label, number of l-shells
 n=6   0   1                         # n, l, Nzeta 
   4.861   
   1.000   
 n=6   1   1 P   1                   # n, l, Nzeta, Polarization, NzetaPol
   6.399   
   1.000   
 n=5   2   1                         # n, l, Nzeta 
   3.258   
   1.000   
%endblock PAO.Basis

prinput: ----------------------------------------------------------------------

 CH_OVERLAP: Z1=   14.999680474802272       ZVAL1=   15.000000000000000     
 CH_OVERLAP: Z2=   14.999680474802272       ZVAL2=   15.000000000000000     
Dumping basis to NetCDF file Bi.ion.nc
coor:   Atomic-coordinates input format  =     Cartesian coordinates
coor:                                          (in Angstroms)

siesta: WARNING: XV file not found

siesta: Atomic coordinates (Bohr) and species
siesta:      4.34491   2.50853   2.23402  1        1
siesta:      0.00000  -0.00000   5.31900  1        2

siesta: System type = slab      

initatomlists: Number of atoms, orbitals, and projectors:      2    28    68

siesta: ******************** Simulation parameters ****************************
siesta:
siesta: The following are some of the parameters of the simulation.
siesta: A complete list of the parameters used, including default values,
siesta: can be found in file out.fdf
siesta:
redata: Spin configuration                          = spin-orbit+offsite
redata: Number of spin components                   = 8
redata: Time-Reversal Symmetry                      = F
redata: Spin-spiral                                 = F
############################################################
#              Spin-orbit coupling is in beta              #
#           Several options may not be compatible          #
############################################################
redata: Long output                                 =   F
redata: Number of Atomic Species                    =        1
redata: Charge density info will appear in .RHO file
redata: Write Mulliken Pop.                         = NO
redata: Matel table size (NRTAB)                    =     1024
redata: Mesh Cutoff                                 =   500.0000 Ry
redata: Net charge of the system                    =     0.0000 |e|
redata: Min. number of SCF Iter                     =        0
redata: Max. number of SCF Iter                     =     1000
redata: SCF convergence failure will abort job
redata: SCF mix quantity                            = Hamiltonian
redata: Mix DM or H after convergence               =   F
redata: Recompute H after scf cycle                 =   F
redata: Mix DM in first SCF step                    =   F
redata: Write Pulay info on disk                    =   F
redata: New DM Occupancy tolerance                  = 0.000000000001
redata: No kicks to SCF
redata: DM Mixing Weight for Kicks                  =     0.5000
redata: Require Harris convergence for SCF          =   F
redata: Harris energy tolerance for SCF             =     0.000100 eV
redata: Require DM convergence for SCF              =   T
redata: DM tolerance for SCF                        =     0.000100
redata: Require EDM convergence for SCF             =   F
redata: EDM tolerance for SCF                       =     0.001000 eV
redata: Require H convergence for SCF               =   T
redata: Hamiltonian tolerance for SCF               =     0.001000 eV
redata: Require (free) Energy convergence for SCF   =   F
redata: (free) Energy tolerance for SCF             =     0.000100 eV
redata: Using Saved Data (generic)                  =   F
redata: Use continuation files for DM               =   F
redata: Neglect nonoverlap interactions             =   F
redata: Method of Calculation                       = Diagonalization
redata: Electronic Temperature                      =   116.0444 K
redata: Fix the spin of the system                  =   F
redata: Split SR and SO contributions               =   F
redata: Max. number of TDED Iter                    =        1
redata: Number of TDED substeps                     =        3
redata: Dynamics option                             = Single-point calculation
mix.SCF: Pulay mixing                            = Pulay
mix.SCF:    Variant                              = stable
mix.SCF:    History steps                        = 5
mix.SCF:    Linear mixing weight                 =     0.250000
mix.SCF:    Mixing weight                        =     0.250000
mix.SCF:    SVD condition                        = 0.1000E-07
mix.SCF: Spin-component mixing                   all
redata: ***********************************************************************

%block SCF.Mixers
  Pulay
%endblock SCF.Mixers

%block SCF.Mixer.Pulay
  # Mixing method
  method pulay
  variant stable

  # Mixing options
  weight 0.2500
  weight.linear 0.2500
  history 5
%endblock SCF.Mixer.Pulay

DM_history_depth set to one: no extrapolation allowed by default for geometry relaxation
Size of DM history Fstack: 1
Total number of electrons:    30.000000
Total ionic charge:    30.000000

* ProcessorY, Blocksize:    1  24


* Orbital distribution balance (max,min):    28    28

k-point displ. along   1 input, could be:     0.50    0.00
k-point displ. along   2 input, could be:     0.50    0.00
k-point displ. along   3 input, could be:     0.50    0.00

Time-reversal symmetry not used.

siesta: k-grid: Number of k-points =       225
siesta: k-points from Monkhorst-Pack grid
siesta: k-cutoff (effective) =    23.000 Ang
siesta: k-point supercell and displacements
siesta: k-grid:   15   0   0      0.500
siesta: k-grid:    0  15   0      0.500
siesta: k-grid:    0   0   1      0.500

diag: Algorithm                                     = D&C
diag: Parallel over k                               =   F
diag: Use parallel 2D distribution                  =   F
diag: Parallel block-size                           = 24
diag: Parallel distribution                         =     1 x     1
diag: Used triangular part                          = Lower
diag: Absolute tolerance                            =  0.100E-15
diag: Orthogonalization factor                      =  0.100E-05
diag: Memory factor                                 =  1.0000

superc: Internal auxiliary supercell:     5 x     5 x     1  =      25
superc: Number of atoms, orbitals, and projectors:     50    700   1700


ts: **************************************************************
ts: Save H and S matrices                           =    F
ts: Save DM and EDM matrices                        =    F
ts: Fix Hartree potential                           =    F
ts: Only save the overlap matrix S                  =    F
ts: **************************************************************

************************ Begin: TS CHECKS AND WARNINGS ************************
************************ End: TS CHECKS AND WARNINGS **************************


                     ====================================
                        Single-point calculation
                     ====================================

superc: Internal auxiliary supercell:     5 x     5 x     1  =      25
superc: Number of atoms, orbitals, and projectors:     50    700   1700

outcell: Unit cell vectors (Ang):
        4.598449    0.000000    0.000000
       -2.299225    3.982374    0.000000
        0.000000    0.000000   46.000000

outcell: Cell vector modules (Ang)   :    4.598449    4.598450   46.000000
outcell: Cell angles (23,13,12) (deg):     90.0000     90.0000    120.0000
outcell: Cell volume (Ang**3)        :    842.3863
<dSpData1D:S at geom step 0
  <sparsity:sparsity for geom step 0
    nrows_g=28 nrows=28 sparsity=8.2602 nnzs=6476, refcount: 8>
  <dData1D:(new from dSpData1D) n=6476, refcount: 1>
refcount: 1>
new_DM -- step:     1
Initializing Density Matrix...
DM filled with atomic data:
<dSpData2D:DM initialized from atoms
  <sparsity:sparsity for geom step 0
    nrows_g=28 nrows=28 sparsity=8.2602 nnzs=6476, refcount: 9>
  <dData2D:DM n=6476 m=8, refcount: 1>
refcount: 1>
     spin moment: S , {S} =    6.00000   0.00000   0.00000   6.00000
New grid distribution:   1
           1       1:   27    1:   27    1:  320

InitMesh: MESH =    54 x    54 x   640 =     1866240
InitMesh: (bp) =    27 x    27 x   320 =      233280
InitMesh: Mesh cutoff (required, used) =   500.000   508.165 Ry
ExtMesh (bp) on 0 =   119 x   119 x   416 =     5890976
PhiOnMesh: Number of (b)points on node 0 =               233280
PhiOnMesh: nlist on node 0 =               868177

stepf: Fermi-Dirac step function

siesta: Program's energy decomposition (eV):
siesta: Ebs     =      -605.359510
siesta: Eions   =      4884.557299
siesta: Ena     =       277.886599
siesta: Ekin    =      2082.491546
siesta: Enl(+so)      -799.524726
siesta: Eso(nil)         0.000000
siesta: Eldau   =         0.000000
siesta: DEna    =        37.966424
siesta: DUscf   =         1.445780
siesta: DUext   =         0.000000
siesta: Exc     =     -1165.067843
siesta: eta*DQ  =         0.000000
siesta: Emadel  =         0.000000
siesta: Emeta   =         0.000000
siesta: Emolmec =         0.000000
siesta: Ekinion =         0.000000
siesta: Eharris =     -4447.034142
siesta: Etot    =     -4449.359520
siesta: FreeEng =     -4449.360163

        iscf     Eharris(eV)        E_KS(eV)     FreeEng(eV)     dDmax    Ef(eV) dHmax(eV)
   scf:    1    -4447.034142    -4449.359520    -4449.360163  0.473379 -1.553991  5.082600
     spin moment: S , {S} =    1.79311  -0.00219   0.00127   1.79311
timer: Routine,Calls,Time,% = IterSCF        1      11.875  56.05
   scf:    2    -4455.691818    -4452.005897    -4452.005897  0.207433 -2.853148  0.635446
     spin moment: S , {S} =    0.14922  -0.00069   0.00040   0.14922
   scf:    3    -4452.073184    -4452.035247    -4452.035247  0.008332 -2.916155  0.454425
     spin moment: S , {S} =    0.12231  -0.00078   0.00045   0.12230
   scf:    4    -4452.092415    -4452.060766    -4452.060768  0.016659 -2.981550  0.218025
     spin moment: S , {S} =    0.06185  -0.00042   0.00024   0.06185
   scf:    5    -4452.068308    -4452.064795    -4452.064796  0.007133 -2.984779  0.126964
     spin moment: S , {S} =    0.04037  -0.00020   0.00011   0.04037
   scf:    6    -4452.072430    -4452.067168    -4452.067168  0.006419 -2.970894  0.020228
     spin moment: S , {S} =    0.00689  -0.00002   0.00001   0.00689
   scf:    7    -4452.067346    -4452.067253    -4452.067254  0.000691 -2.973042  0.013478
     spin moment: S , {S} =    0.00462  -0.00001   0.00000   0.00462
   scf:    8    -4452.067834    -4452.067307    -4452.067307  0.000731 -2.972249  0.010015
     spin moment: S , {S} =    0.00245   0.00000  -0.00000   0.00245
   scf:    9    -4452.068548    -4452.067359    -4452.067360  0.001054 -2.969793  0.005568
     spin moment: S , {S} =    0.00076   0.00001  -0.00000   0.00076
   scf:   10    -4452.067470    -4452.067363    -4452.067363  0.000184 -2.969236  0.004151
     spin moment: S , {S} =    0.00067   0.00001  -0.00000   0.00067
   scf:   11    -4452.067393    -4452.067364    -4452.067365  0.000125 -2.968949  0.002922
     spin moment: S , {S} =    0.00056   0.00000  -0.00000   0.00056
   scf:   12    -4452.067316    -4452.067365    -4452.067365  0.000214 -2.968587  0.000415
     spin moment: S , {S} =    0.00010   0.00000  -0.00000   0.00010
   scf:   13    -4452.067355    -4452.067365    -4452.067366  0.000023 -2.968543  0.000222
     spin moment: S , {S} =    0.00001   0.00000  -0.00000   0.00001

SCF Convergence by DM+H criterion
max |DM_out - DM_in|         :     0.0000231385
max |H_out - H_in|      (eV) :     0.0002217150
SCF cycle converged after 13 iterations

Using DM_out to compute the final energy and forces

siesta: E_KS(eV) =            -4452.0674

siesta: E_KS - E_eggbox =     -4452.0674
     spin moment: S , {S} =    0.00001   0.00000  -0.00000   0.00001

siesta: Atomic forces (eV/Ang):
----------------------------------------
   Tot   -0.000002    0.000001    0.002394
----------------------------------------
   Max    0.054752
   Res    0.030942    sqrt( Sum f_i^2 / 3N )
----------------------------------------
   Max    0.054752    constrained

Stress-tensor-Voigt (kbar):        2.26        2.26       -0.17       -0.00        0.00       -0.00
(Free)E + p*V (eV/cell)    -4452.8308
Target enthalpy (eV/cell)    -4452.0674

siesta: Program's energy decomposition (eV):
siesta: Ebs     =      -599.677638
siesta: Eions   =      4884.557299
siesta: Ena     =       277.886599
siesta: Ekin    =      2100.832128
siesta: Enl(+so)      -809.752161
siesta: Eso(nil)         0.000000
siesta: Eldau   =         0.000000
siesta: DEna    =        30.365821
siesta: DUscf   =         0.989931
siesta: DUext   =         0.000000
siesta: Exc     =     -1167.832384
siesta: eta*DQ  =         0.000000
siesta: Emadel  =         0.000000
siesta: Emeta   =         0.000000
siesta: Emolmec =         0.000000
siesta: Ekinion =         0.000000
siesta: Eharris =     -4452.067355
siesta: Etot    =     -4452.067365
siesta: FreeEng =     -4452.067366

siesta: Final energy (eV):
siesta:  Band Struct. =    -599.677638
siesta:       Kinetic =    2100.832128
siesta:       Hartree =   15574.613857
siesta:       Eldau   =       0.000000
siesta:      Eso(nil) =       0.000000
siesta:    Ext. field =       0.000000
siesta:   Exch.-corr. =   -1167.832384
siesta:  Ion-electron =  -33178.254318
siesta:       Ion-ion =   12218.573351
siesta:       Ekinion =       0.000000
siesta:         Total =   -4452.067365
siesta:         Fermi =      -2.968543

siesta: Atomic forces (eV/Ang):
siesta:      1   -0.001395    0.000806   -0.052358
siesta:      2    0.001393   -0.000804    0.054752
siesta: ----------------------------------------
siesta:    Tot   -0.000002    0.000001    0.002394

siesta: Stress tensor (static) (eV/Ang**3):
siesta:     0.001412   -0.000001   -0.000003
siesta:    -0.000001    0.001411    0.000002
siesta:    -0.000003    0.000002   -0.000104

siesta: Cell volume =        842.386309 Ang**3

siesta: Pressure (static):
siesta:                Solid            Molecule  Units
siesta:          -0.00000987         -0.00001024  Ry/Bohr**3
siesta:          -0.00090632         -0.00094007  eV/Ang**3
siesta:          -1.45210217         -1.50617637  kBar
(Free)E+ p_basis*V_orbitals  =       -4451.023701
(Free)Eharris+ p_basis*V_orbitals  =       -4451.023691
     spin moment: S , {S} =    0.00001   0.00000  -0.00000   0.00001

siesta: Electric dipole (a.u.)  =   -0.000000    0.000000    0.000009
siesta: Electric dipole (Debye) =   -0.000000    0.000000    0.000023

timer: Elapsed wall time (sec) =     129.940
timer: CPU execution times (sec):

Routine            Calls   Time/call    Tot.time        %
siesta                 1     116.438     116.438   100.00
Setup                  1       0.781       0.781     0.67
bands                  1       0.000       0.000     0.00
KSV_init               1       0.000       0.000     0.00
IterGeom               1     115.594     115.594    99.28
state_init             1       0.406       0.406     0.35
hsparse                1       0.000       0.000     0.00
overlap                1       0.391       0.391     0.34
Setup_H0               1       8.125       8.125     6.98
naefs                  2       0.000       0.000     0.00
MolMec                 2       0.000       0.000     0.00
kinefsm                2       0.266       0.531     0.46
nlefsm                 2       1.461       2.922     2.51
DHSCF_Init             1       4.984       4.984     4.28
DHSCF1                 1       0.500       0.500     0.43
INITMESH               1       0.000       0.000     0.00
DHSCF2                 1       4.484       4.484     3.85
REMESH                 1       0.297       0.297     0.25
REORD                140       0.008       1.125     0.97
PHION                  1       2.078       2.078     1.78
COMM_BSC             246       0.007       1.641     1.41
POISON                16       0.772      12.359    10.61
fft                   32       0.347      11.109     9.54
IterSCF               13       7.434      96.641    83.00
setup_H               14       5.459      76.422    65.63
DHSCF                 15       5.750      86.250    74.07
DHSCF3                15       5.451      81.766    70.22
rhoofd                15       0.920      13.797    11.85
XC                    15       2.337      35.062    30.11
GXC-CellXC            15       2.061      30.922    26.56
gridxc@cellXC         15       2.061      30.922    26.56
vmat                  15       0.949      14.234    12.22
writeHSX              15       0.005       0.078     0.07
compute_dm            13       1.544      20.078    17.24
diagon                13       1.542      20.047    17.22
cdiag               5850       0.002       9.469     8.13
cdiag1              5850       0.000       0.734     0.63
cdiag2              5850       0.000       1.781     1.53
cdiag3              5850       0.001       6.031     5.18
cdiag4              2925       0.000       0.359     0.31
MIXER                 12       0.004       0.047     0.04
PostSCF                1      10.406      10.406     8.94
DHSCF4                 1       4.484       4.484     3.85
dfscf                  1       4.047       4.047     3.48
overfsm                1       0.016       0.016     0.01
state_analysis         1       0.016       0.016     0.01
siesta_move            1       0.000       0.000     0.00
Analysis               1       0.047       0.047     0.04
optical                1       0.000       0.000     0.00
  

>> End of run:  16-FEB-2020  17:59:11
Job completed
