# File created by: sisl 2021-05-13
#
CRYSTAL
#
# Primitive lattice vectors:
#
PRIMVEC
162.00000000 0.00000000 0.00000000 
0.00000000 32.00000000 0.00000000 
0.00000000 0.00000000 10.00000000 
#
# Conventional lattice vectors:
#
CONVVEC
162.00000000 0.00000000 0.00000000 
0.00000000 32.00000000 0.00000000 
0.00000000 0.00000000 10.00000000 
#
# Atomic coordinates (in primitive coordinates)
#
PRIMCOORD
4980 1
  1  1.50000000  1.50000000  0.50000000
  1  2.50000000  1.50000000  0.50000000
  1  3.50000000  1.50000000  0.50000000
  1  4.50000000  1.50000000  0.50000000
  1  5.50000000  1.50000000  0.50000000
  1  6.50000000  1.50000000  0.50000000
  1  7.50000000  1.50000000  0.50000000
  1  8.50000000  1.50000000  0.50000000
  1  9.50000000  1.50000000  0.50000000
  1  10.50000000  1.50000000  0.50000000
  1  11.50000000  1.50000000  0.50000000
  1  12.50000000  1.50000000  0.50000000
  1  13.50000000  1.50000000  0.50000000
  1  14.50000000  1.50000000  0.50000000
  1  15.50000000  1.50000000  0.50000000
  1  16.50000000  1.50000000  0.50000000
  1  17.50000000  1.50000000  0.50000000
  1  18.50000000  1.50000000  0.50000000
  1  19.50000000  1.50000000  0.50000000
  1  20.50000000  1.50000000  0.50000000
  1  21.50000000  1.50000000  0.50000000
  1  22.50000000  1.50000000  0.50000000
  1  23.50000000  1.50000000  0.50000000
  1  24.50000000  1.50000000  0.50000000
  1  25.50000000  1.50000000  0.50000000
  1  26.50000000  1.50000000  0.50000000
  1  27.50000000  1.50000000  0.50000000
  1  28.50000000  1.50000000  0.50000000
  1  29.50000000  1.50000000  0.50000000
  1  30.50000000  1.50000000  0.50000000
  1  31.50000000  1.50000000  0.50000000
  1  32.50000000  1.50000000  0.50000000
  1  33.50000000  1.50000000  0.50000000
  1  34.50000000  1.50000000  0.50000000
  1  35.50000000  1.50000000  0.50000000
  1  36.50000000  1.50000000  0.50000000
  1  37.50000000  1.50000000  0.50000000
  1  38.50000000  1.50000000  0.50000000
  1  39.50000000  1.50000000  0.50000000
  1  40.50000000  1.50000000  0.50000000
  1  41.50000000  1.50000000  0.50000000
  1  42.50000000  1.50000000  0.50000000
  1  43.50000000  1.50000000  0.50000000
  1  44.50000000  1.50000000  0.50000000
  1  45.50000000  1.50000000  0.50000000
  1  46.50000000  1.50000000  0.50000000
  1  47.50000000  1.50000000  0.50000000
  1  48.50000000  1.50000000  0.50000000
  1  49.50000000  1.50000000  0.50000000
  1  50.50000000  1.50000000  0.50000000
  1  51.50000000  1.50000000  0.50000000
  1  52.50000000  1.50000000  0.50000000
  1  53.50000000  1.50000000  0.50000000
  1  54.50000000  1.50000000  0.50000000
  1  55.50000000  1.50000000  0.50000000
  1  56.50000000  1.50000000  0.50000000
  1  57.50000000  1.50000000  0.50000000
  1  58.50000000  1.50000000  0.50000000
  1  59.50000000  1.50000000  0.50000000
  1  60.50000000  1.50000000  0.50000000
  1  61.50000000  1.50000000  0.50000000
  1  62.50000000  1.50000000  0.50000000
  1  63.50000000  1.50000000  0.50000000
  1  64.50000000  1.50000000  0.50000000
  1  65.50000000  1.50000000  0.50000000
  1  66.50000000  1.50000000  0.50000000
  1  67.50000000  1.50000000  0.50000000
  1  68.50000000  1.50000000  0.50000000
  1  69.50000000  1.50000000  0.50000000
  1  70.50000000  1.50000000  0.50000000
  1  71.50000000  1.50000000  0.50000000
  1  72.50000000  1.50000000  0.50000000
  1  73.50000000  1.50000000  0.50000000
  1  74.50000000  1.50000000  0.50000000
  1  75.50000000  1.50000000  0.50000000
  1  76.50000000  1.50000000  0.50000000
  1  77.50000000  1.50000000  0.50000000
  1  78.50000000  1.50000000  0.50000000
  1  79.50000000  1.50000000  0.50000000
  1  80.50000000  1.50000000  0.50000000
  1  81.50000000  1.50000000  0.50000000
  1  82.50000000  1.50000000  0.50000000
  1  83.50000000  1.50000000  0.50000000
  1  84.50000000  1.50000000  0.50000000
  1  85.50000000  1.50000000  0.50000000
  1  86.50000000  1.50000000  0.50000000
  1  87.50000000  1.50000000  0.50000000
  1  88.50000000  1.50000000  0.50000000
  1  89.50000000  1.50000000  0.50000000
  1  90.50000000  1.50000000  0.50000000
  1  91.50000000  1.50000000  0.50000000
  1  92.50000000  1.50000000  0.50000000
  1  93.50000000  1.50000000  0.50000000
  1  94.50000000  1.50000000  0.50000000
  1  95.50000000  1.50000000  0.50000000
  1  96.50000000  1.50000000  0.50000000
  1  97.50000000  1.50000000  0.50000000
  1  98.50000000  1.50000000  0.50000000
  1  99.50000000  1.50000000  0.50000000
  1  100.50000000  1.50000000  0.50000000
  1  101.50000000  1.50000000  0.50000000
  1  102.50000000  1.50000000  0.50000000
  1  103.50000000  1.50000000  0.50000000
  1  104.50000000  1.50000000  0.50000000
  1  105.50000000  1.50000000  0.50000000
  1  106.50000000  1.50000000  0.50000000
  1  107.50000000  1.50000000  0.50000000
  1  108.50000000  1.50000000  0.50000000
  1  109.50000000  1.50000000  0.50000000
  1  110.50000000  1.50000000  0.50000000
  1  111.50000000  1.50000000  0.50000000
  1  112.50000000  1.50000000  0.50000000
  1  113.50000000  1.50000000  0.50000000
  1  114.50000000  1.50000000  0.50000000
  1  115.50000000  1.50000000  0.50000000
  1  116.50000000  1.50000000  0.50000000
  1  117.50000000  1.50000000  0.50000000
  1  118.50000000  1.50000000  0.50000000
  1  119.50000000  1.50000000  0.50000000
  1  120.50000000  1.50000000  0.50000000
  1  121.50000000  1.50000000  0.50000000
  1  122.50000000  1.50000000  0.50000000
  1  123.50000000  1.50000000  0.50000000
  1  124.50000000  1.50000000  0.50000000
  1  125.50000000  1.50000000  0.50000000
  1  126.50000000  1.50000000  0.50000000
  1  127.50000000  1.50000000  0.50000000
  1  128.50000000  1.50000000  0.50000000
  1  129.50000000  1.50000000  0.50000000
  1  130.50000000  1.50000000  0.50000000
  1  131.50000000  1.50000000  0.50000000
  1  132.50000000  1.50000000  0.50000000
  1  133.50000000  1.50000000  0.50000000
  1  134.50000000  1.50000000  0.50000000
  1  135.50000000  1.50000000  0.50000000
  1  136.50000000  1.50000000  0.50000000
  1  137.50000000  1.50000000  0.50000000
  1  138.50000000  1.50000000  0.50000000
  1  139.50000000  1.50000000  0.50000000
  1  140.50000000  1.50000000  0.50000000
  1  141.50000000  1.50000000  0.50000000
  1  142.50000000  1.50000000  0.50000000
  1  143.50000000  1.50000000  0.50000000
  1  144.50000000  1.50000000  0.50000000
  1  145.50000000  1.50000000  0.50000000
  1  146.50000000  1.50000000  0.50000000
  1  147.50000000  1.50000000  0.50000000
  1  148.50000000  1.50000000  0.50000000
  1  149.50000000  1.50000000  0.50000000
  1  150.50000000  1.50000000  0.50000000
  1  151.50000000  1.50000000  0.50000000
  1  152.50000000  1.50000000  0.50000000
  1  153.50000000  1.50000000  0.50000000
  1  154.50000000  1.50000000  0.50000000
  1  155.50000000  1.50000000  0.50000000
  1  156.50000000  1.50000000  0.50000000
  1  157.50000000  1.50000000  0.50000000
  1  158.50000000  1.50000000  0.50000000
  1  159.50000000  1.50000000  0.50000000
  1  160.50000000  1.50000000  0.50000000
  1  1.50000000  2.50000000  0.50000000
  1  2.50000000  2.50000000  0.50000000
  1  3.50000000  2.50000000  0.50000000
  1  4.50000000  2.50000000  0.50000000
  1  5.50000000  2.50000000  0.50000000
  1  6.50000000  2.50000000  0.50000000
  1  7.50000000  2.50000000  0.50000000
  1  8.50000000  2.50000000  0.50000000
  1  9.50000000  2.50000000  0.50000000
  1  10.50000000  2.50000000  0.50000000
  1  11.50000000  2.50000000  0.50000000
  1  12.50000000  2.50000000  0.50000000
  1  13.50000000  2.50000000  0.50000000
  1  14.50000000  2.50000000  0.50000000
  1  15.50000000  2.50000000  0.50000000
  1  16.50000000  2.50000000  0.50000000
  1  17.50000000  2.50000000  0.50000000
  1  18.50000000  2.50000000  0.50000000
  1  19.50000000  2.50000000  0.50000000
  1  20.50000000  2.50000000  0.50000000
  1  21.50000000  2.50000000  0.50000000
  1  22.50000000  2.50000000  0.50000000
  1  23.50000000  2.50000000  0.50000000
  1  24.50000000  2.50000000  0.50000000
  1  25.50000000  2.50000000  0.50000000
  1  26.50000000  2.50000000  0.50000000
  1  27.50000000  2.50000000  0.50000000
  1  28.50000000  2.50000000  0.50000000
  1  29.50000000  2.50000000  0.50000000
  1  30.50000000  2.50000000  0.50000000
  1  31.50000000  2.50000000  0.50000000
  1  32.50000000  2.50000000  0.50000000
  1  33.50000000  2.50000000  0.50000000
  1  34.50000000  2.50000000  0.50000000
  1  35.50000000  2.50000000  0.50000000
  1  36.50000000  2.50000000  0.50000000
  1  37.50000000  2.50000000  0.50000000
  1  38.50000000  2.50000000  0.50000000
  1  39.50000000  2.50000000  0.50000000
  1  40.50000000  2.50000000  0.50000000
  1  41.50000000  2.50000000  0.50000000
  1  42.50000000  2.50000000  0.50000000
  1  43.50000000  2.50000000  0.50000000
  1  44.50000000  2.50000000  0.50000000
  1  45.50000000  2.50000000  0.50000000
  1  46.50000000  2.50000000  0.50000000
  1  47.50000000  2.50000000  0.50000000
  1  48.50000000  2.50000000  0.50000000
  1  49.50000000  2.50000000  0.50000000
  1  50.50000000  2.50000000  0.50000000
  1  51.50000000  2.50000000  0.50000000
  1  52.50000000  2.50000000  0.50000000
  1  53.50000000  2.50000000  0.50000000
  1  54.50000000  2.50000000  0.50000000
  1  55.50000000  2.50000000  0.50000000
  1  56.50000000  2.50000000  0.50000000
  1  57.50000000  2.50000000  0.50000000
  1  58.50000000  2.50000000  0.50000000
  1  59.50000000  2.50000000  0.50000000
  1  60.50000000  2.50000000  0.50000000
  1  61.50000000  2.50000000  0.50000000
  1  62.50000000  2.50000000  0.50000000
  1  63.50000000  2.50000000  0.50000000
  1  64.50000000  2.50000000  0.50000000
  1  65.50000000  2.50000000  0.50000000
  1  66.50000000  2.50000000  0.50000000
  1  67.50000000  2.50000000  0.50000000
  1  68.50000000  2.50000000  0.50000000
  1  69.50000000  2.50000000  0.50000000
  1  70.50000000  2.50000000  0.50000000
  1  71.50000000  2.50000000  0.50000000
  1  72.50000000  2.50000000  0.50000000
  1  73.50000000  2.50000000  0.50000000
  1  74.50000000  2.50000000  0.50000000
  1  75.50000000  2.50000000  0.50000000
  1  76.50000000  2.50000000  0.50000000
  1  77.50000000  2.50000000  0.50000000
  1  78.50000000  2.50000000  0.50000000
  1  79.50000000  2.50000000  0.50000000
  1  80.50000000  2.50000000  0.50000000
  1  81.50000000  2.50000000  0.50000000
  1  82.50000000  2.50000000  0.50000000
  1  83.50000000  2.50000000  0.50000000
  1  84.50000000  2.50000000  0.50000000
  1  85.50000000  2.50000000  0.50000000
  1  86.50000000  2.50000000  0.50000000
  1  87.50000000  2.50000000  0.50000000
  1  88.50000000  2.50000000  0.50000000
  1  89.50000000  2.50000000  0.50000000
  1  90.50000000  2.50000000  0.50000000
  1  91.50000000  2.50000000  0.50000000
  1  92.50000000  2.50000000  0.50000000
  1  93.50000000  2.50000000  0.50000000
  1  94.50000000  2.50000000  0.50000000
  1  95.50000000  2.50000000  0.50000000
  1  96.50000000  2.50000000  0.50000000
  1  97.50000000  2.50000000  0.50000000
  1  98.50000000  2.50000000  0.50000000
  1  99.50000000  2.50000000  0.50000000
  1  100.50000000  2.50000000  0.50000000
  1  101.50000000  2.50000000  0.50000000
  1  102.50000000  2.50000000  0.50000000
  1  103.50000000  2.50000000  0.50000000
  1  104.50000000  2.50000000  0.50000000
  1  105.50000000  2.50000000  0.50000000
  1  106.50000000  2.50000000  0.50000000
  1  107.50000000  2.50000000  0.50000000
  1  108.50000000  2.50000000  0.50000000
  1  109.50000000  2.50000000  0.50000000
  1  110.50000000  2.50000000  0.50000000
  1  111.50000000  2.50000000  0.50000000
  1  112.50000000  2.50000000  0.50000000
  1  113.50000000  2.50000000  0.50000000
  1  114.50000000  2.50000000  0.50000000
  1  115.50000000  2.50000000  0.50000000
  1  116.50000000  2.50000000  0.50000000
  1  117.50000000  2.50000000  0.50000000
  1  118.50000000  2.50000000  0.50000000
  1  119.50000000  2.50000000  0.50000000
  1  120.50000000  2.50000000  0.50000000
  1  121.50000000  2.50000000  0.50000000
  1  122.50000000  2.50000000  0.50000000
  1  123.50000000  2.50000000  0.50000000
  1  124.50000000  2.50000000  0.50000000
  1  125.50000000  2.50000000  0.50000000
  1  126.50000000  2.50000000  0.50000000
  1  127.50000000  2.50000000  0.50000000
  1  128.50000000  2.50000000  0.50000000
  1  129.50000000  2.50000000  0.50000000
  1  130.50000000  2.50000000  0.50000000
  1  131.50000000  2.50000000  0.50000000
  1  132.50000000  2.50000000  0.50000000
  1  133.50000000  2.50000000  0.50000000
  1  134.50000000  2.50000000  0.50000000
  1  135.50000000  2.50000000  0.50000000
  1  136.50000000  2.50000000  0.50000000
  1  137.50000000  2.50000000  0.50000000
  1  138.50000000  2.50000000  0.50000000
  1  139.50000000  2.50000000  0.50000000
  1  140.50000000  2.50000000  0.50000000
  1  141.50000000  2.50000000  0.50000000
  1  142.50000000  2.50000000  0.50000000
  1  143.50000000  2.50000000  0.50000000
  1  144.50000000  2.50000000  0.50000000
  1  145.50000000  2.50000000  0.50000000
  1  146.50000000  2.50000000  0.50000000
  1  147.50000000  2.50000000  0.50000000
  1  148.50000000  2.50000000  0.50000000
  1  149.50000000  2.50000000  0.50000000
  1  150.50000000  2.50000000  0.50000000
  1  151.50000000  2.50000000  0.50000000
  1  152.50000000  2.50000000  0.50000000
  1  153.50000000  2.50000000  0.50000000
  1  154.50000000  2.50000000  0.50000000
  1  155.50000000  2.50000000  0.50000000
  1  156.50000000  2.50000000  0.50000000
  1  157.50000000  2.50000000  0.50000000
  1  158.50000000  2.50000000  0.50000000
  1  159.50000000  2.50000000  0.50000000
  1  160.50000000  2.50000000  0.50000000
  1  1.50000000  3.50000000  0.50000000
  1  2.50000000  3.50000000  0.50000000
  1  3.50000000  3.50000000  0.50000000
  1  4.50000000  3.50000000  0.50000000
  1  5.50000000  3.50000000  0.50000000
  1  6.50000000  3.50000000  0.50000000
  1  7.50000000  3.50000000  0.50000000
  1  8.50000000  3.50000000  0.50000000
  1  9.50000000  3.50000000  0.50000000
  1  10.50000000  3.50000000  0.50000000
  1  11.50000000  3.50000000  0.50000000
  1  12.50000000  3.50000000  0.50000000
  1  13.50000000  3.50000000  0.50000000
  1  14.50000000  3.50000000  0.50000000
  1  15.50000000  3.50000000  0.50000000
  1  16.50000000  3.50000000  0.50000000
  1  17.50000000  3.50000000  0.50000000
  1  18.50000000  3.50000000  0.50000000
  1  19.50000000  3.50000000  0.50000000
  1  20.50000000  3.50000000  0.50000000
  1  21.50000000  3.50000000  0.50000000
  1  22.50000000  3.50000000  0.50000000
  1  23.50000000  3.50000000  0.50000000
  1  24.50000000  3.50000000  0.50000000
  1  25.50000000  3.50000000  0.50000000
  1  26.50000000  3.50000000  0.50000000
  1  27.50000000  3.50000000  0.50000000
  1  28.50000000  3.50000000  0.50000000
  1  29.50000000  3.50000000  0.50000000
  1  30.50000000  3.50000000  0.50000000
  1  31.50000000  3.50000000  0.50000000
  1  32.50000000  3.50000000  0.50000000
  1  33.50000000  3.50000000  0.50000000
  1  34.50000000  3.50000000  0.50000000
  1  35.50000000  3.50000000  0.50000000
  1  36.50000000  3.50000000  0.50000000
  1  37.50000000  3.50000000  0.50000000
  1  38.50000000  3.50000000  0.50000000
  1  39.50000000  3.50000000  0.50000000
  1  40.50000000  3.50000000  0.50000000
  1  41.50000000  3.50000000  0.50000000
  1  42.50000000  3.50000000  0.50000000
  1  43.50000000  3.50000000  0.50000000
  1  44.50000000  3.50000000  0.50000000
  1  45.50000000  3.50000000  0.50000000
  1  46.50000000  3.50000000  0.50000000
  1  47.50000000  3.50000000  0.50000000
  1  48.50000000  3.50000000  0.50000000
  1  49.50000000  3.50000000  0.50000000
  1  50.50000000  3.50000000  0.50000000
  1  51.50000000  3.50000000  0.50000000
  1  52.50000000  3.50000000  0.50000000
  1  53.50000000  3.50000000  0.50000000
  1  54.50000000  3.50000000  0.50000000
  1  55.50000000  3.50000000  0.50000000
  1  56.50000000  3.50000000  0.50000000
  1  57.50000000  3.50000000  0.50000000
  1  58.50000000  3.50000000  0.50000000
  1  59.50000000  3.50000000  0.50000000
  1  60.50000000  3.50000000  0.50000000
  1  61.50000000  3.50000000  0.50000000
  1  62.50000000  3.50000000  0.50000000
  1  63.50000000  3.50000000  0.50000000
  1  64.50000000  3.50000000  0.50000000
  1  65.50000000  3.50000000  0.50000000
  1  66.50000000  3.50000000  0.50000000
  1  67.50000000  3.50000000  0.50000000
  1  68.50000000  3.50000000  0.50000000
  1  69.50000000  3.50000000  0.50000000
  1  70.50000000  3.50000000  0.50000000
  1  71.50000000  3.50000000  0.50000000
  1  72.50000000  3.50000000  0.50000000
  1  73.50000000  3.50000000  0.50000000
  1  74.50000000  3.50000000  0.50000000
  1  75.50000000  3.50000000  0.50000000
  1  76.50000000  3.50000000  0.50000000
  1  77.50000000  3.50000000  0.50000000
  1  78.50000000  3.50000000  0.50000000
  1  79.50000000  3.50000000  0.50000000
  1  80.50000000  3.50000000  0.50000000
  1  81.50000000  3.50000000  0.50000000
  1  82.50000000  3.50000000  0.50000000
  1  83.50000000  3.50000000  0.50000000
  1  84.50000000  3.50000000  0.50000000
  1  85.50000000  3.50000000  0.50000000
  1  86.50000000  3.50000000  0.50000000
  1  87.50000000  3.50000000  0.50000000
  1  88.50000000  3.50000000  0.50000000
  1  89.50000000  3.50000000  0.50000000
  1  90.50000000  3.50000000  0.50000000
  1  91.50000000  3.50000000  0.50000000
  1  92.50000000  3.50000000  0.50000000
  1  93.50000000  3.50000000  0.50000000
  1  94.50000000  3.50000000  0.50000000
  1  95.50000000  3.50000000  0.50000000
  1  96.50000000  3.50000000  0.50000000
  1  97.50000000  3.50000000  0.50000000
  1  98.50000000  3.50000000  0.50000000
  1  99.50000000  3.50000000  0.50000000
  1  100.50000000  3.50000000  0.50000000
  1  101.50000000  3.50000000  0.50000000
  1  102.50000000  3.50000000  0.50000000
  1  103.50000000  3.50000000  0.50000000
  1  104.50000000  3.50000000  0.50000000
  1  105.50000000  3.50000000  0.50000000
  1  106.50000000  3.50000000  0.50000000
  1  107.50000000  3.50000000  0.50000000
  1  108.50000000  3.50000000  0.50000000
  1  109.50000000  3.50000000  0.50000000
  1  110.50000000  3.50000000  0.50000000
  1  111.50000000  3.50000000  0.50000000
  1  112.50000000  3.50000000  0.50000000
  1  113.50000000  3.50000000  0.50000000
  1  114.50000000  3.50000000  0.50000000
  1  115.50000000  3.50000000  0.50000000
  1  116.50000000  3.50000000  0.50000000
  1  117.50000000  3.50000000  0.50000000
  1  118.50000000  3.50000000  0.50000000
  1  119.50000000  3.50000000  0.50000000
  1  120.50000000  3.50000000  0.50000000
  1  121.50000000  3.50000000  0.50000000
  1  122.50000000  3.50000000  0.50000000
  1  123.50000000  3.50000000  0.50000000
  1  124.50000000  3.50000000  0.50000000
  1  125.50000000  3.50000000  0.50000000
  1  126.50000000  3.50000000  0.50000000
  1  127.50000000  3.50000000  0.50000000
  1  128.50000000  3.50000000  0.50000000
  1  129.50000000  3.50000000  0.50000000
  1  130.50000000  3.50000000  0.50000000
  1  131.50000000  3.50000000  0.50000000
  1  132.50000000  3.50000000  0.50000000
  1  133.50000000  3.50000000  0.50000000
  1  134.50000000  3.50000000  0.50000000
  1  135.50000000  3.50000000  0.50000000
  1  136.50000000  3.50000000  0.50000000
  1  137.50000000  3.50000000  0.50000000
  1  138.50000000  3.50000000  0.50000000
  1  139.50000000  3.50000000  0.50000000
  1  140.50000000  3.50000000  0.50000000
  1  141.50000000  3.50000000  0.50000000
  1  142.50000000  3.50000000  0.50000000
  1  143.50000000  3.50000000  0.50000000
  1  144.50000000  3.50000000  0.50000000
  1  145.50000000  3.50000000  0.50000000
  1  146.50000000  3.50000000  0.50000000
  1  147.50000000  3.50000000  0.50000000
  1  148.50000000  3.50000000  0.50000000
  1  149.50000000  3.50000000  0.50000000
  1  150.50000000  3.50000000  0.50000000
  1  151.50000000  3.50000000  0.50000000
  1  152.50000000  3.50000000  0.50000000
  1  153.50000000  3.50000000  0.50000000
  1  154.50000000  3.50000000  0.50000000
  1  155.50000000  3.50000000  0.50000000
  1  156.50000000  3.50000000  0.50000000
  1  157.50000000  3.50000000  0.50000000
  1  158.50000000  3.50000000  0.50000000
  1  159.50000000  3.50000000  0.50000000
  1  160.50000000  3.50000000  0.50000000
  1  1.50000000  4.50000000  0.50000000
  1  2.50000000  4.50000000  0.50000000
  1  3.50000000  4.50000000  0.50000000
  1  4.50000000  4.50000000  0.50000000
  1  5.50000000  4.50000000  0.50000000
  1  6.50000000  4.50000000  0.50000000
  1  7.50000000  4.50000000  0.50000000
  1  8.50000000  4.50000000  0.50000000
  1  9.50000000  4.50000000  0.50000000
  1  10.50000000  4.50000000  0.50000000
  1  11.50000000  4.50000000  0.50000000
  1  12.50000000  4.50000000  0.50000000
  1  13.50000000  4.50000000  0.50000000
  1  14.50000000  4.50000000  0.50000000
  1  15.50000000  4.50000000  0.50000000
  1  16.50000000  4.50000000  0.50000000
  1  17.50000000  4.50000000  0.50000000
  1  18.50000000  4.50000000  0.50000000
  1  19.50000000  4.50000000  0.50000000
  1  20.50000000  4.50000000  0.50000000
  1  21.50000000  4.50000000  0.50000000
  1  22.50000000  4.50000000  0.50000000
  1  23.50000000  4.50000000  0.50000000
  1  24.50000000  4.50000000  0.50000000
  1  25.50000000  4.50000000  0.50000000
  1  26.50000000  4.50000000  0.50000000
  1  27.50000000  4.50000000  0.50000000
  1  28.50000000  4.50000000  0.50000000
  1  29.50000000  4.50000000  0.50000000
  1  30.50000000  4.50000000  0.50000000
  1  31.50000000  4.50000000  0.50000000
  1  32.50000000  4.50000000  0.50000000
  1  33.50000000  4.50000000  0.50000000
  1  34.50000000  4.50000000  0.50000000
  1  35.50000000  4.50000000  0.50000000
  1  36.50000000  4.50000000  0.50000000
  1  37.50000000  4.50000000  0.50000000
  1  38.50000000  4.50000000  0.50000000
  1  39.50000000  4.50000000  0.50000000
  1  40.50000000  4.50000000  0.50000000
  1  41.50000000  4.50000000  0.50000000
  1  42.50000000  4.50000000  0.50000000
  1  43.50000000  4.50000000  0.50000000
  1  44.50000000  4.50000000  0.50000000
  1  45.50000000  4.50000000  0.50000000
  1  46.50000000  4.50000000  0.50000000
  1  47.50000000  4.50000000  0.50000000
  1  48.50000000  4.50000000  0.50000000
  1  49.50000000  4.50000000  0.50000000
  1  50.50000000  4.50000000  0.50000000
  1  51.50000000  4.50000000  0.50000000
  1  52.50000000  4.50000000  0.50000000
  1  53.50000000  4.50000000  0.50000000
  1  54.50000000  4.50000000  0.50000000
  1  55.50000000  4.50000000  0.50000000
  1  56.50000000  4.50000000  0.50000000
  1  57.50000000  4.50000000  0.50000000
  1  58.50000000  4.50000000  0.50000000
  1  59.50000000  4.50000000  0.50000000
  1  60.50000000  4.50000000  0.50000000
  1  61.50000000  4.50000000  0.50000000
  1  62.50000000  4.50000000  0.50000000
  1  63.50000000  4.50000000  0.50000000
  1  64.50000000  4.50000000  0.50000000
  1  65.50000000  4.50000000  0.50000000
  1  66.50000000  4.50000000  0.50000000
  1  67.50000000  4.50000000  0.50000000
  1  68.50000000  4.50000000  0.50000000
  1  69.50000000  4.50000000  0.50000000
  1  70.50000000  4.50000000  0.50000000
  1  71.50000000  4.50000000  0.50000000
  1  72.50000000  4.50000000  0.50000000
  1  73.50000000  4.50000000  0.50000000
  1  74.50000000  4.50000000  0.50000000
  1  75.50000000  4.50000000  0.50000000
  1  76.50000000  4.50000000  0.50000000
  1  77.50000000  4.50000000  0.50000000
  1  78.50000000  4.50000000  0.50000000
  1  79.50000000  4.50000000  0.50000000
  1  80.50000000  4.50000000  0.50000000
  1  81.50000000  4.50000000  0.50000000
  1  82.50000000  4.50000000  0.50000000
  1  83.50000000  4.50000000  0.50000000
  1  84.50000000  4.50000000  0.50000000
  1  85.50000000  4.50000000  0.50000000
  1  86.50000000  4.50000000  0.50000000
  1  87.50000000  4.50000000  0.50000000
  1  88.50000000  4.50000000  0.50000000
  1  89.50000000  4.50000000  0.50000000
  1  90.50000000  4.50000000  0.50000000
  1  91.50000000  4.50000000  0.50000000
  1  92.50000000  4.50000000  0.50000000
  1  93.50000000  4.50000000  0.50000000
  1  94.50000000  4.50000000  0.50000000
  1  95.50000000  4.50000000  0.50000000
  1  96.50000000  4.50000000  0.50000000
  1  97.50000000  4.50000000  0.50000000
  1  98.50000000  4.50000000  0.50000000
  1  99.50000000  4.50000000  0.50000000
  1  100.50000000  4.50000000  0.50000000
  1  101.50000000  4.50000000  0.50000000
  1  102.50000000  4.50000000  0.50000000
  1  103.50000000  4.50000000  0.50000000
  1  104.50000000  4.50000000  0.50000000
  1  105.50000000  4.50000000  0.50000000
  1  106.50000000  4.50000000  0.50000000
  1  107.50000000  4.50000000  0.50000000
  1  108.50000000  4.50000000  0.50000000
  1  109.50000000  4.50000000  0.50000000
  1  110.50000000  4.50000000  0.50000000
  1  111.50000000  4.50000000  0.50000000
  1  112.50000000  4.50000000  0.50000000
  1  113.50000000  4.50000000  0.50000000
  1  114.50000000  4.50000000  0.50000000
  1  115.50000000  4.50000000  0.50000000
  1  116.50000000  4.50000000  0.50000000
  1  117.50000000  4.50000000  0.50000000
  1  118.50000000  4.50000000  0.50000000
  1  119.50000000  4.50000000  0.50000000
  1  120.50000000  4.50000000  0.50000000
  1  121.50000000  4.50000000  0.50000000
  1  122.50000000  4.50000000  0.50000000
  1  123.50000000  4.50000000  0.50000000
  1  124.50000000  4.50000000  0.50000000
  1  125.50000000  4.50000000  0.50000000
  1  126.50000000  4.50000000  0.50000000
  1  127.50000000  4.50000000  0.50000000
  1  128.50000000  4.50000000  0.50000000
  1  129.50000000  4.50000000  0.50000000
  1  130.50000000  4.50000000  0.50000000
  1  131.50000000  4.50000000  0.50000000
  1  132.50000000  4.50000000  0.50000000
  1  133.50000000  4.50000000  0.50000000
  1  134.50000000  4.50000000  0.50000000
  1  135.50000000  4.50000000  0.50000000
  1  136.50000000  4.50000000  0.50000000
  1  137.50000000  4.50000000  0.50000000
  1  138.50000000  4.50000000  0.50000000
  1  139.50000000  4.50000000  0.50000000
  1  140.50000000  4.50000000  0.50000000
  1  141.50000000  4.50000000  0.50000000
  1  142.50000000  4.50000000  0.50000000
  1  143.50000000  4.50000000  0.50000000
  1  144.50000000  4.50000000  0.50000000
  1  145.50000000  4.50000000  0.50000000
  1  146.50000000  4.50000000  0.50000000
  1  147.50000000  4.50000000  0.50000000
  1  148.50000000  4.50000000  0.50000000
  1  149.50000000  4.50000000  0.50000000
  1  150.50000000  4.50000000  0.50000000
  1  151.50000000  4.50000000  0.50000000
  1  152.50000000  4.50000000  0.50000000
  1  153.50000000  4.50000000  0.50000000
  1  154.50000000  4.50000000  0.50000000
  1  155.50000000  4.50000000  0.50000000
  1  156.50000000  4.50000000  0.50000000
  1  157.50000000  4.50000000  0.50000000
  1  158.50000000  4.50000000  0.50000000
  1  159.50000000  4.50000000  0.50000000
  1  160.50000000  4.50000000  0.50000000
  1  1.50000000  5.50000000  0.50000000
  1  2.50000000  5.50000000  0.50000000
  1  3.50000000  5.50000000  0.50000000
  1  4.50000000  5.50000000  0.50000000
  1  5.50000000  5.50000000  0.50000000
  1  6.50000000  5.50000000  0.50000000
  1  7.50000000  5.50000000  0.50000000
  1  8.50000000  5.50000000  0.50000000
  1  9.50000000  5.50000000  0.50000000
  1  10.50000000  5.50000000  0.50000000
  1  11.50000000  5.50000000  0.50000000
  1  12.50000000  5.50000000  0.50000000
  1  13.50000000  5.50000000  0.50000000
  1  14.50000000  5.50000000  0.50000000
  1  15.50000000  5.50000000  0.50000000
  1  16.50000000  5.50000000  0.50000000
  1  17.50000000  5.50000000  0.50000000
  1  18.50000000  5.50000000  0.50000000
  1  19.50000000  5.50000000  0.50000000
  1  20.50000000  5.50000000  0.50000000
  1  21.50000000  5.50000000  0.50000000
  1  22.50000000  5.50000000  0.50000000
  1  23.50000000  5.50000000  0.50000000
  1  24.50000000  5.50000000  0.50000000
  1  25.50000000  5.50000000  0.50000000
  1  26.50000000  5.50000000  0.50000000
  1  27.50000000  5.50000000  0.50000000
  1  28.50000000  5.50000000  0.50000000
  1  29.50000000  5.50000000  0.50000000
  1  30.50000000  5.50000000  0.50000000
  1  31.50000000  5.50000000  0.50000000
  1  32.50000000  5.50000000  0.50000000
  1  33.50000000  5.50000000  0.50000000
  1  34.50000000  5.50000000  0.50000000
  1  35.50000000  5.50000000  0.50000000
  1  36.50000000  5.50000000  0.50000000
  1  37.50000000  5.50000000  0.50000000
  1  38.50000000  5.50000000  0.50000000
  1  39.50000000  5.50000000  0.50000000
  1  40.50000000  5.50000000  0.50000000
  1  41.50000000  5.50000000  0.50000000
  1  42.50000000  5.50000000  0.50000000
  1  43.50000000  5.50000000  0.50000000
  1  44.50000000  5.50000000  0.50000000
  1  45.50000000  5.50000000  0.50000000
  1  46.50000000  5.50000000  0.50000000
  1  47.50000000  5.50000000  0.50000000
  1  48.50000000  5.50000000  0.50000000
  1  49.50000000  5.50000000  0.50000000
  1  50.50000000  5.50000000  0.50000000
  1  51.50000000  5.50000000  0.50000000
  1  52.50000000  5.50000000  0.50000000
  1  53.50000000  5.50000000  0.50000000
  1  54.50000000  5.50000000  0.50000000
  1  55.50000000  5.50000000  0.50000000
  1  56.50000000  5.50000000  0.50000000
  1  57.50000000  5.50000000  0.50000000
  1  58.50000000  5.50000000  0.50000000
  1  59.50000000  5.50000000  0.50000000
  1  60.50000000  5.50000000  0.50000000
  1  61.50000000  5.50000000  0.50000000
  1  62.50000000  5.50000000  0.50000000
  1  63.50000000  5.50000000  0.50000000
  1  64.50000000  5.50000000  0.50000000
  1  65.50000000  5.50000000  0.50000000
  1  66.50000000  5.50000000  0.50000000
  1  67.50000000  5.50000000  0.50000000
  1  68.50000000  5.50000000  0.50000000
  1  69.50000000  5.50000000  0.50000000
  1  70.50000000  5.50000000  0.50000000
  1  71.50000000  5.50000000  0.50000000
  1  72.50000000  5.50000000  0.50000000
  1  73.50000000  5.50000000  0.50000000
  1  74.50000000  5.50000000  0.50000000
  1  75.50000000  5.50000000  0.50000000
  1  76.50000000  5.50000000  0.50000000