# File created by: sisl 2021-05-14
#
CRYSTAL
#
# Primitive lattice vectors:
#
PRIMVEC
194.66000000 0.00000000 0.00000000 
0.00000000 79.19024293 0.00000000 
0.00000000 0.00000000 14.20000000 
#
# Conventional lattice vectors:
#
CONVVEC
194.66000000 0.00000000 0.00000000 
0.00000000 79.19024293 0.00000000 
0.00000000 0.00000000 14.20000000 
#
# Atomic coordinates (in primitive coordinates)
#
PRIMCOORD
3514 1
  7  10.71000000  17.45951215  7.10000000
  7  10.71000000  19.91902429  7.10000000
  7  10.71000000  22.37853644  7.10000000
  7  10.71000000  24.83804859  7.10000000
  7  10.71000000  27.29756073  7.10000000
  7  10.71000000  29.75707288  7.10000000
  7  10.71000000  32.21658503  7.10000000
  7  10.71000000  34.67609717  7.10000000
  7  10.71000000  37.13560932  7.10000000
  7  10.71000000  39.59512147  7.10000000
  7  10.71000000  42.05463361  7.10000000
  7  10.71000000  44.51414576  7.10000000
  7  10.71000000  46.97365791  7.10000000
  7  10.71000000  49.43317005  7.10000000
  7  10.71000000  51.89268220  7.10000000
  7  10.71000000  54.35219435  7.10000000
  7  10.71000000  56.81170649  7.10000000
  7  10.71000000  59.27121864  7.10000000
  7  10.71000000  61.73073079  7.10000000
  7  11.42000000  16.22975607  7.10000000
  7  11.42000000  18.68926822  7.10000000
  7  11.42000000  21.14878037  7.10000000
  7  11.42000000  23.60829251  7.10000000
  7  11.42000000  26.06780466  7.10000000
  7  11.42000000  28.52731681  7.10000000
  7  11.42000000  30.98682895  7.10000000
  7  11.42000000  33.44634110  7.10000000
  7  11.42000000  35.90585325  7.10000000
  7  11.42000000  38.36536539  7.10000000
  7  11.42000000  40.82487754  7.10000000
  7  11.42000000  43.28438969  7.10000000
  7  11.42000000  45.74390183  7.10000000
  7  11.42000000  48.20341398  7.10000000
  7  11.42000000  50.66292613  7.10000000
  7  11.42000000  53.12243827  7.10000000
  7  11.42000000  55.58195042  7.10000000
  7  11.42000000  58.04146257  7.10000000
  7  11.42000000  60.50097471  7.10000000
  7  11.42000000  62.96048686  7.10000000
  7  12.84000000  16.22975607  7.10000000
  7  12.84000000  18.68926822  7.10000000
  7  12.84000000  21.14878037  7.10000000
  7  12.84000000  23.60829251  7.10000000
  7  12.84000000  26.06780466  7.10000000
  7  12.84000000  28.52731681  7.10000000
  7  12.84000000  30.98682895  7.10000000
  7  12.84000000  33.44634110  7.10000000
  7  12.84000000  35.90585325  7.10000000
  7  12.84000000  38.36536539  7.10000000
  7  12.84000000  40.82487754  7.10000000
  7  12.84000000  43.28438969  7.10000000
  7  12.84000000  45.74390183  7.10000000
  7  12.84000000  48.20341398  7.10000000
  7  12.84000000  50.66292613  7.10000000
  7  12.84000000  53.12243827  7.10000000
  7  12.84000000  55.58195042  7.10000000
  7  12.84000000  58.04146257  7.10000000
  7  12.84000000  60.50097471  7.10000000
  7  12.84000000  62.96048686  7.10000000
  7  13.55000000  17.45951215  7.10000000
  7  13.55000000  19.91902429  7.10000000
  7  13.55000000  22.37853644  7.10000000
  7  13.55000000  24.83804859  7.10000000
  7  13.55000000  27.29756073  7.10000000
  7  13.55000000  29.75707288  7.10000000
  7  13.55000000  32.21658503  7.10000000
  7  13.55000000  34.67609717  7.10000000
  7  13.55000000  37.13560932  7.10000000
  7  13.55000000  39.59512147  7.10000000
  7  13.55000000  42.05463361  7.10000000
  7  13.55000000  44.51414576  7.10000000
  7  13.55000000  46.97365791  7.10000000
  7  13.55000000  49.43317005  7.10000000
  7  13.55000000  51.89268220  7.10000000
  7  13.55000000  54.35219435  7.10000000
  7  13.55000000  56.81170649  7.10000000
  7  13.55000000  59.27121864  7.10000000
  7  13.55000000  61.73073079  7.10000000
  7  14.97000000  17.45951215  7.10000000
  7  14.97000000  19.91902429  7.10000000
  7  14.97000000  22.37853644  7.10000000
  7  14.97000000  24.83804859  7.10000000
  7  14.97000000  27.29756073  7.10000000
  7  14.97000000  29.75707288  7.10000000
  7  14.97000000  32.21658503  7.10000000
  7  14.97000000  34.67609717  7.10000000
  7  14.97000000  37.13560932  7.10000000
  7  14.97000000  39.59512147  7.10000000
  7  14.97000000  42.05463361  7.10000000
  7  14.97000000  44.51414576  7.10000000
  7  14.97000000  46.97365791  7.10000000
  7  14.97000000  49.43317005  7.10000000
  7  14.97000000  51.89268220  7.10000000
  7  14.97000000  54.35219435  7.10000000
  7  14.97000000  56.81170649  7.10000000
  7  14.97000000  59.27121864  7.10000000
  7  14.97000000  61.73073079  7.10000000
  7  15.68000000  16.22975607  7.10000000
  7  15.68000000  18.68926822  7.10000000
  7  15.68000000  21.14878037  7.10000000
  7  15.68000000  23.60829251  7.10000000
  7  15.68000000  26.06780466  7.10000000
  7  15.68000000  28.52731681  7.10000000
  7  15.68000000  30.98682895  7.10000000
  7  15.68000000  33.44634110  7.10000000
  7  15.68000000  35.90585325  7.10000000
  7  15.68000000  38.36536539  7.10000000
  7  15.68000000  40.82487754  7.10000000
  7  15.68000000  43.28438969  7.10000000
  7  15.68000000  45.74390183  7.10000000
  7  15.68000000  48.20341398  7.10000000
  7  15.68000000  50.66292613  7.10000000
  7  15.68000000  53.12243827  7.10000000
  7  15.68000000  55.58195042  7.10000000
  7  15.68000000  58.04146257  7.10000000
  7  15.68000000  60.50097471  7.10000000
  7  15.68000000  62.96048686  7.10000000
  7  17.10000000  16.22975607  7.10000000
  7  17.10000000  18.68926822  7.10000000
  7  17.10000000  21.14878037  7.10000000
  7  17.10000000  23.60829251  7.10000000
  7  17.10000000  26.06780466  7.10000000
  7  17.10000000  28.52731681  7.10000000
  7  17.10000000  30.98682895  7.10000000
  7  17.10000000  33.44634110  7.10000000
  7  17.10000000  35.90585325  7.10000000
  7  17.10000000  38.36536539  7.10000000
  7  17.10000000  40.82487754  7.10000000
  7  17.10000000  43.28438969  7.10000000
  7  17.10000000  45.74390183  7.10000000
  7  17.10000000  48.20341398  7.10000000
  7  17.10000000  50.66292613  7.10000000
  7  17.10000000  53.12243827  7.10000000
  7  17.10000000  55.58195042  7.10000000
  7  17.10000000  58.04146257  7.10000000
  7  17.10000000  60.50097471  7.10000000
  7  17.10000000  62.96048686  7.10000000
  7  17.81000000  17.45951215  7.10000000
  7  17.81000000  19.91902429  7.10000000
  7  17.81000000  22.37853644  7.10000000
  7  17.81000000  24.83804859  7.10000000
  7  17.81000000  27.29756073  7.10000000
  7  17.81000000  29.75707288  7.10000000
  7  17.81000000  32.21658503  7.10000000
  7  17.81000000  34.67609717  7.10000000
  7  17.81000000  37.13560932  7.10000000
  7  17.81000000  39.59512147  7.10000000
  7  17.81000000  42.05463361  7.10000000
  7  17.81000000  44.51414576  7.10000000
  7  17.81000000  46.97365791  7.10000000
  7  17.81000000  49.43317005  7.10000000
  7  17.81000000  51.89268220  7.10000000
  7  17.81000000  54.35219435  7.10000000
  7  17.81000000  56.81170649  7.10000000
  7  17.81000000  59.27121864  7.10000000
  7  17.81000000  61.73073079  7.10000000
  7  19.23000000  17.45951215  7.10000000
  7  19.23000000  19.91902429  7.10000000
  7  19.23000000  22.37853644  7.10000000
  7  19.23000000  24.83804859  7.10000000
  7  19.23000000  27.29756073  7.10000000
  7  19.23000000  29.75707288  7.10000000
  7  19.23000000  32.21658503  7.10000000
  7  19.23000000  34.67609717  7.10000000
  7  19.23000000  37.13560932  7.10000000
  7  19.23000000  39.59512147  7.10000000
  7  19.23000000  42.05463361  7.10000000
  7  19.23000000  44.51414576  7.10000000
  7  19.23000000  46.97365791  7.10000000
  7  19.23000000  49.43317005  7.10000000
  7  19.23000000  51.89268220  7.10000000
  7  19.23000000  54.35219435  7.10000000
  7  19.23000000  56.81170649  7.10000000
  7  19.23000000  59.27121864  7.10000000
  7  19.23000000  61.73073079  7.10000000
  7  19.94000000  16.22975607  7.10000000
  7  19.94000000  18.68926822  7.10000000
  7  19.94000000  21.14878037  7.10000000
  7  19.94000000  23.60829251  7.10000000
  7  19.94000000  26.06780466  7.10000000
  7  19.94000000  28.52731681  7.10000000
  7  19.94000000  30.98682895  7.10000000
  7  19.94000000  33.44634110  7.10000000
  7  19.94000000  35.90585325  7.10000000
  7  19.94000000  38.36536539  7.10000000
  7  19.94000000  40.82487754  7.10000000
  7  19.94000000  43.28438969  7.10000000
  7  19.94000000  45.74390183  7.10000000
  7  19.94000000  48.20341398  7.10000000
  7  19.94000000  50.66292613  7.10000000
  7  19.94000000  53.12243827  7.10000000
  7  19.94000000  55.58195042  7.10000000
  7  19.94000000  58.04146257  7.10000000
  7  19.94000000  60.50097471  7.10000000
  7  19.94000000  62.96048686  7.10000000
  7  21.36000000  16.22975607  7.10000000
  7  21.36000000  18.68926822  7.10000000
  7  21.36000000  21.14878037  7.10000000
  7  21.36000000  23.60829251  7.10000000
  7  21.36000000  26.06780466  7.10000000
  7  21.36000000  28.52731681  7.10000000
  7  21.36000000  30.98682895  7.10000000
  7  21.36000000  33.44634110  7.10000000
  7  21.36000000  35.90585325  7.10000000
  7  21.36000000  38.36536539  7.10000000
  7  21.36000000  40.82487754  7.10000000
  7  21.36000000  43.28438969  7.10000000
  7  21.36000000  45.74390183  7.10000000
  7  21.36000000  48.20341398  7.10000000
  7  21.36000000  50.66292613  7.10000000
  7  21.36000000  53.12243827  7.10000000
  7  21.36000000  55.58195042  7.10000000
  7  21.36000000  58.04146257  7.10000000
  7  21.36000000  60.50097471  7.10000000
  7  21.36000000  62.96048686  7.10000000
  7  22.07000000  17.45951215  7.10000000
  7  22.07000000  19.91902429  7.10000000
  7  22.07000000  22.37853644  7.10000000
  7  22.07000000  24.83804859  7.10000000
  7  22.07000000  27.29756073  7.10000000
  7  22.07000000  29.75707288  7.10000000
  7  22.07000000  32.21658503  7.10000000
  7  22.07000000  34.67609717  7.10000000
  7  22.07000000  37.13560932  7.10000000
  7  22.07000000  39.59512147  7.10000000
  7  22.07000000  42.05463361  7.10000000
  7  22.07000000  44.51414576  7.10000000
  7  22.07000000  46.97365791  7.10000000
  7  22.07000000  49.43317005  7.10000000
  7  22.07000000  51.89268220  7.10000000
  7  22.07000000  54.35219435  7.10000000
  7  22.07000000  56.81170649  7.10000000
  7  22.07000000  59.27121864  7.10000000
  7  22.07000000  61.73073079  7.10000000
  7  23.49000000  17.45951215  7.10000000
  7  23.49000000  19.91902429  7.10000000
  7  23.49000000  22.37853644  7.10000000
  7  23.49000000  24.83804859  7.10000000
  7  23.49000000  27.29756073  7.10000000
  7  23.49000000  29.75707288  7.10000000
  7  23.49000000  32.21658503  7.10000000
  7  23.49000000  34.67609717  7.10000000
  7  23.49000000  37.13560932  7.10000000
  7  23.49000000  39.59512147  7.10000000
  7  23.49000000  42.05463361  7.10000000
  7  23.49000000  44.51414576  7.10000000
  7  23.49000000  46.97365791  7.10000000
  7  23.49000000  49.43317005  7.10000000
  7  23.49000000  51.89268220  7.10000000
  7  23.49000000  54.35219435  7.10000000
  7  23.49000000  56.81170649  7.10000000
  7  23.49000000  59.27121864  7.10000000
  7  23.49000000  61.73073079  7.10000000
  7  24.20000000  16.22975607  7.10000000
  7  24.20000000  18.68926822  7.10000000
  7  24.20000000  21.14878037  7.10000000
  7  24.20000000  23.60829251  7.10000000
  7  24.20000000  26.06780466  7.10000000
  7  24.20000000  28.52731681  7.10000000
  7  24.20000000  30.98682895  7.10000000
  7  24.20000000  33.44634110  7.10000000
  7  24.20000000  35.90585325  7.10000000
  7  24.20000000  38.36536539  7.10000000
  7  24.20000000  40.82487754  7.10000000
  7  24.20000000  43.28438969  7.10000000
  7  24.20000000  45.74390183  7.10000000
  7  24.20000000  48.20341398  7.10000000
  7  24.20000000  50.66292613  7.10000000
  7  24.20000000  53.12243827  7.10000000
  7  24.20000000  55.58195042  7.10000000
  7  24.20000000  58.04146257  7.10000000
  7  24.20000000  60.50097471  7.10000000
  7  24.20000000  62.96048686  7.10000000
  7  25.62000000  16.22975607  7.10000000
  7  25.62000000  18.68926822  7.10000000
  7  25.62000000  21.14878037  7.10000000
  7  25.62000000  23.60829251  7.10000000
  7  25.62000000  26.06780466  7.10000000
  7  25.62000000  28.52731681  7.10000000
  7  25.62000000  30.98682895  7.10000000
  7  25.62000000  33.44634110  7.10000000
  7  25.62000000  35.90585325  7.10000000
  7  25.62000000  38.36536539  7.10000000
  7  25.62000000  40.82487754  7.10000000
  7  25.62000000  43.28438969  7.10000000
  7  25.62000000  45.74390183  7.10000000
  7  25.62000000  48.20341398  7.10000000
  7  25.62000000  50.66292613  7.10000000
  7  25.62000000  53.12243827  7.10000000
  7  25.62000000  55.58195042  7.10000000
  7  25.62000000  58.04146257  7.10000000
  7  25.62000000  60.50097471  7.10000000
  7  25.62000000  62.96048686  7.10000000
  7  26.33000000  17.45951215  7.10000000
  7  26.33000000  19.91902429  7.10000000
  7  26.33000000  22.37853644  7.10000000
  7  26.33000000  24.83804859  7.10000000
  7  26.33000000  27.29756073  7.10000000
  7  26.33000000  29.75707288  7.10000000
  7  26.33000000  32.21658503  7.10000000
  7  26.33000000  34.67609717  7.10000000
  7  26.33000000  37.13560932  7.10000000
  7  26.33000000  39.59512147  7.10000000
  7  26.33000000  42.05463361  7.10000000
  7  26.33000000  44.51414576  7.10000000
  7  26.33000000  46.97365791  7.10000000
  7  26.33000000  49.43317005  7.10000000
  7  26.33000000  51.89268220  7.10000000
  7  26.33000000  54.35219435  7.10000000
  7  26.33000000  56.81170649  7.10000000
  7  26.33000000  59.27121864  7.10000000
  7  26.33000000  61.73073079  7.10000000
  7  27.75000000  17.45951215  7.10000000
  7  27.75000000  19.91902429  7.10000000
  7  27.75000000  22.37853644  7.10000000
  7  27.75000000  24.83804859  7.10000000
  7  27.75000000  27.29756073  7.10000000
  7  27.75000000  29.75707288  7.10000000
  7  27.75000000  32.21658503  7.10000000
  7  27.75000000  34.67609717  7.10000000
  7  27.75000000  37.13560932  7.10000000
  7  27.75000000  39.59512147  7.10000000
  7  27.75000000  42.05463361  7.10000000
  7  27.75000000  44.51414576  7.10000000
  7  27.75000000  46.97365791  7.10000000
  7  27.75000000  49.43317005  7.10000000
  7  27.75000000  51.89268220  7.10000000
  7  27.75000000  54.35219435  7.10000000
  7  27.75000000  56.81170649  7.10000000
  7  27.75000000  59.27121864  7.10000000
  7  27.75000000  61.73073079  7.10000000
  7  28.46000000  16.22975607  7.10000000
  7  28.46000000  18.68926822  7.10000000
  7  28.46000000  21.14878037  7.10000000
  7  28.46000000  23.60829251  7.10000000
  7  28.46000000  26.06780466  7.10000000
  7  28.46000000  28.52731681  7.10000000
  7  28.46000000  30.98682895  7.10000000
  7  28.46000000  33.44634110  7.10000000
  7  28.46000000  35.90585325  7.10000000
  7  28.46000000  38.36536539  7.10000000
  7  28.46000000  40.82487754  7.10000000
  7  28.46000000  43.28438969  7.10000000
  7  28.46000000  45.74390183  7.10000000
  7  28.46000000  48.20341398  7.10000000
  7  28.46000000  50.66292613  7.10000000
  7  28.46000000  53.12243827  7.10000000
  7  28.46000000  55.58195042  7.10000000
  7  28.46000000  58.04146257  7.10000000
  7  28.46000000  60.50097471  7.10000000
  7  28.46000000  62.96048686  7.10000000
  7  29.88000000  16.22975607  7.10000000
  7  29.88000000  18.68926822  7.10000000
  7  29.88000000  21.14878037  7.10000000
  7  29.88000000  23.60829251  7.10000000
  7  29.88000000  26.06780466  7.10000000
  7  29.88000000  28.52731681  7.10000000
  7  29.88000000  30.98682895  7.10000000
  7  29.88000000  33.44634110  7.10000000
  7  29.88000000  35.90585325  7.10000000
  7  29.88000000  38.36536539  7.10000000
  7  29.88000000  40.82487754  7.10000000
  7  29.88000000  43.28438969  7.10000000
  7  29.88000000  45.74390183  7.10000000
  7  29.88000000  48.20341398  7.10000000
  7  29.88000000  50.66292613  7.10000000
  7  29.88000000  53.12243827  7.10000000
  7  29.88000000  55.58195042  7.10000000
  7  29.88000000  58.04146257  7.10000000
  7  29.88000000  60.50097471  7.10000000
  7  29.88000000  62.96048686  7.10000000
  7  30.59000000  17.45951215  7.10000000
  7  30.59000000  19.91902429  7.10000000
  7  30.59000000  22.37853644  7.10000000
  7  30.59000000  24.83804859  7.10000000
  7  30.59000000  27.29756073  7.10000000
  7  30.59000000  29.75707288  7.10000000
  7  30.59000000  32.21658503  7.10000000
  7  30.59000000  34.67609717  7.10000000
  7  30.59000000  37.13560932  7.10000000
  7  30.59000000  39.59512147  7.10000000
  7  30.59000000  42.05463361  7.10000000
  7  30.59000000  44.51414576  7.10000000
  7  30.59000000  46.97365791  7.10000000
  7  30.59000000  49.43317005  7.10000000
  7  30.59000000  51.89268220  7.10000000
  7  30.59000000  54.35219435  7.10000000
  7  30.59000000  56.81170649  7.10000000
  7  30.59000000  59.27121864  7.10000000
  7  30.59000000  61.73073079  7.10000000
  7  32.01000000  17.45951215  7.10000000
  7  32.01000000  19.91902429  7.10000000
  7  32.01000000  22.37853644  7.10000000
  7  32.01000000  24.83804859  7.10000000
  7  32.01000000  27.29756073  7.10000000
  7  32.01000000  29.75707288  7.10000000
  7  32.01000000  32.21658503  7.10000000
  7  32.01000000  34.67609717  7.10000000
  7  32.01000000  37.13560932  7.10000000
  7  32.01000000  39.59512147  7.10000000
  7  32.01000000  42.05463361  7.10000000
  7  32.01000000  44.51414576  7.10000000
  7  32.01000000  46.97365791  7.10000000
  7  32.01000000  49.43317005  7.10000000
  7  32.01000000  51.89268220  7.10000000
  7  32.01000000  54.35219435  7.10000000
  7  32.01000000  56.81170649  7.10000000
  7  32.01000000  59.27121864  7.10000000
  7  32.01000000  61.73073079  7.10000000
  7  32.72000000  16.22975607  7.10000000
  7  32.72000000  18.68926822  7.10000000
  7  32.72000000  21.14878037  7.10000000
  7  32.72000000  23.60829251  7.10000000
  7  32.72000000  26.06780466  7.10000000
  7  32.72000000  28.52731681  7.10000000
  7  32.72000000  30.98682895  7.10000000
  7  32.72000000  33.44634110  7.10000000
  7  32.72000000  35.90585325  7.10000000
  7  32.72000000  38.36536539  7.10000000
  7  32.72000000  40.82487754  7.10000000
  7  32.72000000  43.28438969  7.10000000
  7  32.72000000  45.74390183  7.10000000
  7  32.72000000  48.20341398  7.10000000
  7  32.72000000  50.66292613  7.10000000
  7  32.72000000  53.12243827  7.10000000
  7  32.72000000  55.58195042  7.10000000
  7  32.72000000  58.04146257  7.10000000
  7  32.72000000  60.50097471  7.10000000
  7  32.72000000  62.96048686  7.10000000
  7  34.14000000  16.22975607  7.10000000
  7  34.14000000  18.68926822  7.10000000
  7  34.14000000  21.14878037  7.10000000
  7  34.14000000  23.60829251  7.10000000
  7  34.14000000  26.06780466  7.10000000
  7  34.14000000  28.52731681  7.10000000
  7  34.14000000  30.98682895  7.10000000
  7  34.14000000  33.44634110  7.10000000
  7  34.14000000  35.90585325  7.10000000
  7  34.14000000  38.36536539  7.10000000
  7  34.14000000  40.82487754  7.10000000
  7  34.14000000  43.28438969  7.10000000
  7  34.14000000  45.74390183  7.10000000
  7  34.14000000  48.20341398  7.10000000
  7  34.14000000  50.66292613  7.10000000
  7  34.14000000  53.12243827  7.10000000
  7  34.14000000  55.58195042  7.10000000
  7  34.14000000  58.04146257  7.10000000
  7  34.14000000  60.50097471  7.10000000
  7  34.14000000  62.96048686  7.10000000
  7  34.85000000  17.45951215  7.10000000
  7  34.85000000  19.91902429  7.10000000
  7  34.85000000  22.37853644  7.10000000
  7  34.85000000  24.83804859  7.10000000
  7  34.85000000  27.29756073  7.10000000
  7  34.85000000  29.75707288  7.10000000
  7  34.85000000  32.21658503  7.10000000
  7  34.85000000  34.67609717  7.10000000
  7  34.85000000  37.13560932  7.10000000
  7  34.85000000  39.59512147  7.10000000
  7  34.85000000  42.05463361  7.10000000
  7  34.85000000  44.51414576  7.10000000
  7  34.85000000  46.97365791  7.10000000
  7  34.85000000  49.43317005  7.10000000
  7  34.85000000  51.89268220  7.10000000
  7  34.85000000  54.35219435  7.10000000
  7  34.85000000  56.81170649  7.10000000
  7  34.85000000  59.27121864  7.10000000
  7  34.85000000  61.73073079  7.10000000
  7  36.27000000  17.45951215  7.10000000
  7  36.27000000  19.91902429  7.10000000
  7  36.27000000  22.37853644  7.10000000
  7  36.27000000  24.83804859  7.10000000
  7  36.27000000  27.29756073  7.10000000
  7  36.27000000  29.75707288  7.10000000
  7  36.27000000  32.21658503  7.10000000
  7  36.27000000  34.67609717  7.10000000
  7  36.27000000  37.13560932  7.10000000
  7  36.27000000  39.59512147  7.10000000
  7  36.27000000  42.05463361  7.10000000
  7  36.27000000  44.51414576  7.10000000
  7  36.27000000  46.97365791  7.10000000
  7  36.27000000  49.43317005  7.10000000
  7  36.27000000  51.89268220  7.10000000
  7  36.27000000  54.35219435  7.10000000
  7  36.27000000  56.81170649  7.10000000
  7  36.27000000  59.27121864  7.10000000
  7  36.27000000  61.73073079  7.10000000
  7  36.98000000  16.22975607  7.10000000
  7  36.98000000  18.68926822  7.10000000
  7  36.98000000  21.14878037  7.10000000
  7  36.98000000  23.60829251  7.10000000
  7  36.98000000  26.06780466  7.10000000
  7  36.98000000  28.52731681  7.10000000
  7  36.98000000  30.98682895  7.10000000
  7  36.98000000  33.44634110  7.10000000
  7  36.98000000  35.90585325  7.10000000
  7  36.98000000  38.36536539  7.10000000
  7  36.98000000  40.82487754  7.10000000
  7  36.98000000  43.28438969  7.10000000
  7  36.98000000  45.74390183  7.10000000
  7  36.98000000  48.20341398  7.10000000
  7  36.98000000  50.66292613  7.10000000
  7  36.98000000  53.12243827  7.10000000
  7  36.98000000  55.58195042  7.10000000
  7  36.98000000  58.04146257  7.10000000
  7  36.98000000  60.50097471  7.10000000
  7  36.98000000  62.96048686  7.10000000
  7  38.40000000  16.22975607  7.10000000
  7  38.40000000  18.68926822  7.10000000
  7  38.40000000  21.14878037  7.10000000
  7  38.40000000  23.60829251  7.10000000
  7  38.40000000  26.06780466  7.10000000
  7  38.40000000  28.52731681  7.10000000
  7  38.40000000  30.98682895  7.10000000
  7  38.40000000  33.44634110  7.10000000
  7  38.40000000  35.90585325  7.10000000
  7  38.40000000  38.36536539  7.10000000
  7  38.40000000  40.82487754  7.10000000
  7  38.40000000  43.28438969  7.10000000
  7  38.40000000  45.74390183  7.10000000
  7  38.40000000  48.20341398  7.10000000
  7  38.40000000  50.66292613  7.10000000
  7  38.40000000  53.12243827  7.10000000
  7  38.40000000  55.58195042  7.10000000
  7  38.40000000  58.04146257  7.10000000
  7  38.40000000  60.50097471  7.10000000
  7  38.40000000  62.96048686  7.10000000
  7  39.11000000  17.45951215  7.10000000
  7  39.11000000  19.91902429  7.10000000
  7  39.11000000  22.37853644  7.10000000
  7  39.11000000  24.83804859  7.10000000
  7  39.11000000  27.29756073  7.10000000
  7  39.11000000  29.75707288  7.10000000
  7  39.11000000  32.21658503  7.10000000
  7  39.11000000  34.67609717  7.10000000
  7  39.11000000  37.13560932  7.10000000
  7  39.11000000  39.59512147  7.10000000
  7  39.11000000  42.05463361  7.10000000
  7  39.11000000  44.51414576  7.10000000
  7  39.11000000  46.97365791  7.10000000
  7  39.11000000  49.43317005  7.10000000
  7  39.11000000  51.89268220  7.10000000
  7  39.11000000  54.35219435  7.10000000
  7  39.11000000  56.81170649  7.10000000
  7  39.11000000  59.27121864  7.10000000
  7  39.11000000  61.73073079  7.10000000
  7  40.53000000  17.45951215  7.10000000
  7  40.53000000  19.91902429  7.10000000
  7  40.53000000  22.37853644  7.10000000
  7  40.53000000  24.83804859  7.10000000
  7  40.53000000  27.29756073  7.10000000
  7  40.53000000  29.75707288  7.10000000
  7  40.53000000  32.21658503  7.10000000
  7  40.53000000  34.67609717  7.10000000
  7  40.53000000  37.13560932  7.10000000
  7  40.53000000  39.59512147  7.10000000
  7  40.53000000  42.05463361  7.10000000
  7  40.53000000  44.51414576  7.10000000
  7  40.53000000  46.97365791  7.10000000
  7  40.53000000  49.43317005  7.10000000
  7  40.53000000  51.89268220  7.10000000
  7  40.53000000  54.35219435  7.10000000
  7  40.53000000  56.81170649  7.10000000
  7  40.53000000  59.27121864  7.10000000
  7  40.53000000  61.73073079  7.10000000
  7  41.24000000  16.22975607  7.10000000
  7  41.24000000  18.68926822  7.10000000
  7  41.24000000  21.14878037  7.10000000
  7  41.24000000  23.60829251  7.10000000
  7  41.24000000  26.06780466  7.10000000
  7  41.24000000  28.52731681  7.10000000
  7  41.24000000  30.98682895  7.10000000
  7  41.24000000  33.44634110  7.10000000
  7  41.24000000  35.90585325  7.10000000
  7  41.24000000  38.36536539  7.10000000
  7  41.24000000  40.82487754  7.10000000
  7  41.24000000  43.28438969  7.10000000
  7  41.24000000  45.74390183  7.10000000
  7  41.24000000  48.20341398  7.10000000
  7  41.24000000  50.66292613  7.10000000
  7  41.24000000  53.12243827  7.10000000
  7  41.24000000  55.58195042  7.10000000
  7  41.24000000  58.04146257  7.10000000
  7  41.24000000  60.50097471  7.10000000
  7  41.24000000  62.96048686  7.10000000
  7  42.66000000  16.22975607  7.10000000
  7  42.66000000  18.68926822  7.10000000
  7  42.66000000  21.14878037  7.10000000
  7  42.66000000  23.60829251  7.10000000
  7  42.66000000  26.06780466  7.10000000
  7  42.66000000  28.52731681  7.10000000
  7  42.66000000  30.98682895  7.10000000
  7  42.66000000  33.44634110  7.10000000
  7  42.66000000  35.90585325  7.10000000
  7  42.66000000  38.36536539  7.10000000
  7  42.66000000  40.82487754  7.10000000
  7  42.66000000  43.28438969  7.10000000
  7  42.66000000  45.74390183  7.10000000
  7  42.66000000  48.20341398  7.10000000
  7  42.66000000  50.66292613  7.10000000
  7  42.66000000  53.12243827  7.10000000
  7  42.66000000  55.58195042  7.10000000
  7  42.66000000  58.04146257  7.10000000
  7  42.66000000  60.50097471  7.10000000
  7  42.66000000  62.96048686  7.10000000
  7  43.37000000  17.45951215  7.10000000
  7  43.37000000  19.91902429  7.10000000
  7  43.37000000  22.37853644  7.10000000
  7  43.37000000  24.83804859  7.10000000
  7  43.37000000  27.29756073  7.10000000
  7  43.37000000  29.75707288  7.10000000
  7  43.37000000  32.21658503  7.10000000
  7  43.37000000  34.67609717  7.10000000
  7  43.37000000  37.13560932  7.10000000
  7  43.37000000  39.59512147  7.10000000
  7  43.37000000  42.05463361  7.10000000
  7  43.37000000  44.51414576  7.10000000
  7  43.37000000  46.97365791  7.10000000
  7  43.37000000  49.43317005  7.10000000
  7  43.37000000  51.89268220  7.10000000
  7  43.37000000  54.35219435  7.10000000
  7  43.37000000  56.81170649  7.10000000
  7  43.37000000  59.27121864  7.10000000
  7  43.37000000  61.73073079  7.10000000
  7  44.79000000  17.45951215  7.10000000
  7  44.79000000  19.91902429  7.10000000
  7  44.79000000  22.37853644  7.10000000
  7  44.79000000  24.83804859  7.10000000
  7  44.79000000  27.29756073  7.10000000
  7  44.79000000  29.75707288  7.10000000
  7  44.79000000  32.21658503  7.10000000
  7  44.79000000  34.67609717  7.10000000
  7  44.79000000  37.13560932  7.10000000
  7  44.79000000  39.59512147  7.10000000
  7  44.79000000  42.05463361  7.10000000
  7  44.79000000  44.51414576  7.10000000
  7  44.79000000  46.97365791  7.10000000
  7  44.79000000  49.43317005  7.10000000
  7  44.79000000  51.89268220  7.10000000
  7  44.79000000  54.35219435  7.10000000
  7  44.79000000  56.81170649  7.10000000
  7  44.79000000  59.27121864  7.10000000
  7  44.79000000  61.73073079  7.10000000
  7  45.50000000  16.22975607  7.10000000
  7  45.50000000  18.68926822  7.10000000
  7  45.50000000  21.14878037  7.10000000
  7  45.50000000  23.60829251  7.10000000
  7  45.50000000  26.06780466  7.10000000
  7  45.50000000  28.52731681  7.10000000
  7  45.50000000  30.98682895  7.10000000
  7  45.50000000  33.44634110  7.10000000
  7  45.50000000  35.90585325  7.10000000
  7  45.50000000  38.36536539  7.10000000
  7  45.50000000  40.82487754  7.10000000
  7  45.50000000  43.28438969  7.10000000
  7  45.50000000  45.74390183  7.10000000
  7  45.50000000  48.20341398  7.10000000
  7  45.50000000  50.66292613  7.10000000
  7  45.50000000  53.12243827  7.10000000
  7  45.50000000  55.58195042  7.10000000
  7  45.50000000  58.04146257  7.10000000
  7  45.50000000  60.50097471  7.10000000
  7  45.50000000  62.96048686  7.10000000
  7  46.92000000  16.22975607  7.10000000
  7  46.92000000  18.68926822  7.10000000
  7  46.92000000  21.14878037  7.10000000
  7  46.92000000  23.60829251  7.10000000
  7  46.92000000  26.06780466  7.10000000
  7  46.92000000  28.52731681  7.10000000
  7  46.92000000  30.98682895  7.10000000
  7  46.92000000  33.44634110  7.10000000
  7  46.92000000  35.90585325  7.10000000
  7  46.92000000  38.36536539  7.10000000
  7  46.92000000  40.82487754  7.10000000
  7  46.92000000  43.28438969  7.10000000
  7  46.92000000  45.74390183  7.10000000
  7  46.92000000  48.20341398  7.10000000
  7  46.92000000  50.66292613  7.10000000
  7  46.92000000  53.12243827  7.10000000
  7  46.92000000  55.58195042  7.10000000
  7  46.92000000  58.04146257  7.10000000
  7  46.92000000  60.50097471  7.10000000
  7  46.92000000  62.96048686  7.10000000
  7  47.63000000  17.45951215  7.10000000
  7  47.63000000  19.91902429  7.10000000
  7  47.63000000  22.37853644  7.10000000
  7  47.63000000  24.83804859  7.10000000
  7  47.63000000  27.29756073  7.10000000
  7  47.63000000  29.75707288  7.10000000
  7  47.63000000  32.21658503  7.10000000
  7  47.63000000  34.67609717  7.10000000
  7  47.63000000  37.13560932  7.10000000
  7  47.63000000  39.59512147  7.10000000
  7  47.63000000  42.05463361  7.10000000
  7  47.63000000  44.51414576  7.10000000
  7  47.63000000  46.97365791  7.10000000
  7  47.63000000  49.43317005  7.10000000
  7  47.63000000  51.89268220  7.10000000
  7  47.63000000  54.35219435  7.10000000
  7  47.63000000  56.81170649  7.10000000
  7  47.63000000  59.27121864  7.10000000
  7  47.63000000  61.73073079  7.10000000
  7  49.05000000  17.45951215  7.10000000
  7  49.05000000  19.91902429  7.10000000