Siesta Version  : psml+spglib (unofficial)
Architecture    : unknown
Compiler version: ifort (IFORT) 17.0.4 20170411
Compiler flags  : mpiifort -qopenmp -O2 -mtune=skylake -prec-div -prec-sqrt -fp-model source
PP flags        : -DF2003 -DSIESTA__HAS__SPGLIB -DMPI -DMPI_TIMING -DCDF -DNCDF -DNCDF_4 -DSIESTA__DIAG_2STAGE
Libraries       : libsiestaLAPACK.a libsiestaBLAS.a libncdf.a libfdict.a  -lnetcdff -L/apps/INTEL/2017.4/mkl/lib/intel64 -lmkl_scalapack_lp64 -lmkl_intel_lp64 -lmkl_intel_thread -lmkl_core -lmkl_blacs_intelmpi_lp64 -liomp5 -lpthread -lm -ldl -L/apps/INTEL/2017.4/mkl/lib/intel64 -lmkl_scalapack_lp64 -lmkl_intel_lp64 -lmkl_intel_thread -lmkl_core -lmkl_blacs_intelmpi_lp64 -liomp5 -lpthread -lm -ldl
Directory       : /gpfs/home/pr1eme00/pr1eme10/cal/Tutorial-SIESTA-school/spin-texture-DONE/test-WTe2-monolayer/010-SpinTexture-Nils/020-try-again
PARALLEL version
THREADED version
* OpenMP version 201511
NetCDF support
NetCDF-4 support

* Running on 24 nodes in parallel
* Running 1 OpenMP threads.
* Running 24 processes.
* OpenMP version 201511
* OpenMP NOT bound (please bind threads!)
* OpenMP runtime schedule STATIC, chunks 0
** OpenMP (trying to FORCE nesting)
* OpenMP allows 2147483647 nested levels.
>> Start of run:  28-JUN-2022  14:44:58

                           ***********************       
                           *  WELCOME TO SIESTA  *       
                           ***********************       

reinit: Reading from standard input
reinit: Dumped input in INPUT_TMP.48183
************************** Dump of input data file ****************************
# Name and Label
SystemName          WTe2 monolayer 1T' #(default: blank)
SystemLabel         WTe2  #(default: siesta)
# Chemical species and Atoms
NumberOfSpecies        2
NumberOfAtoms          6
%block ChemicalSpeciesLabel
  1   74  W
  2   52  Te
%endblock ChemicalSpeciesLabel
# Cell and atomic positions
LatticeConstant       1.00 Ang
%block LatticeVectors
  3.496   0.0     0.0
  0.0     6.282   0.0
  0.0     0.0   104.07
%endblock LatticeVectors
AtomicCoordinatesFormat   Ang
%block AtomicCoordinatesAndAtomicSpecies     # monolayer in initial WTe2 bulk, then sym by Pablo, and change 1 digital
   0.87400   1.12793   0.10482   1
  -0.87400  -1.12793  -0.10482   1
  -0.87400   2.68147  -1.46258   2
  -0.87400   0.48277   2.07744   2
   0.87400   3.60053   1.46258   2
   0.87400  -0.48277  -2.07744   2
%endblock AtomicCoordinatesAndAtomicSpecies
# K-points sampling
%block kgrid_Monkhorst_Pack
        14               0               0              0.5
         0               8               0              0.5
         0               0               1              0.5
%endblock kgrid_Monkhorst_Pack
# Real-space mesh Fineness of the grid
MeshCutoff              500 Ry     # default value 100 Ry
PAO.EnergyShift         0.002 Ry   # default 0.02 Ry
XC.Functional           GGA
XC.Authors              PBE
Spin                    spin-orbit
ElectronicTemperature  0.008 eV # default 300K, 8meV ~ 92.8K
# Self Consistent Options
SCF.Mix                 Hamiltonian  # (default) Hamiltonian, which is better for soc calc.
SCF.Mix.First           F            # (default) true
MaxSCFIterations        200          # (default) 1000
SCF.Mixer.Method        Pulay        # (default) Pulay
SCF.Mixer.Weight        0.25         # (default) 0.25
SCF.Mixer.History       5            # (default) 2
SCF.Mixer.Kick          30           # (default) 0
SCF.DM.Converge         T            # (default) true
SCF.DM.Tolerance        1.0d-5       # (default) 1.0d-4
SCF.H.Tolerance         1.d-5 eV     # for SOC
WriteOrbMom             .true.       # For SOC, T-print output of vector orbital magneticc moment (mB)
# Conjugate Gradient Method
#MD.TypeOfRun            CG
#MD.NumCGsteps           200
#MD.MaxCGDispl          0.4 Ang         #default 0.2 Bohr
#MD.MaxForceTol         0.01 eV/Ang     #default 0.04 eV/Ang Force tolerance in coordinate optimization
#MD.VariableCell        .true.          # Is the lattice relaxed together with the atomic coordinates?
# Matthieu's spglib branch
ImposeSymmetries       .true. # (default false)
#ToleranceSymmetries     1d-5  #  (default: 1d-6)
# Keeping c lattice constant fixed
#%block Geometry.Constraints
#stress 3 4 5
#%endblock
DM.UseSaveDM            .true.      # Use DM Continuation files
MD.UseSaveXV            .true.      # Use stored positions and velocities
MD.UseSaveCG            .true.      # Use stored positions and velocities
### Spin Texture and Z2 invariant
#SaveHS     T  # write Hamiltonian and overlap matrices and other data to generate bands and DOS, in file .HSX.
TS.HS.Save T  # (default) true, saving the Hamiltonian (SystemLabel.TSHS).
#CDF.Save   T  # Create the SystemLabel.nc file which is a NetCDF file.
# Magnetic moment
#DM.InitSpin.AF         true  # default false, the initial spin-configuration is a ferromagnetic order (all spins up).
                              # if true, all odd atoms are initialized to spin-up, all even atoms are initialized to spin-down.
WriteMullikenPop        1
XML.Write              true
#WriteVoronoiPop        true
#WriteHirshfeldPop      true
# External Electric Fields and dipole
#%block ExternalElectricField
#0.000 0.000 0.10 V/Ang         # a vector in Cartesian coordinates, in the specified units V/Ang.
#%endblock ExternalElectricField
#SlabDipoleCorrection    true    # applying an electric field perpendicular to a slab will slab dipole correction defautly
# Bands
BandLinesScale       ReciprocalLatticeVectors
%block BandLines
1        0.500   0.000   0.000   X
200      0.000   0.000   0.000   \Gamma
200      0.000   0.500   0.000   Y
%endblock BandLines
************************** End of input data file *****************************

reinit: -----------------------------------------------------------------------
reinit: System Name: WTe2 monolayer 1T'
reinit: -----------------------------------------------------------------------
reinit: System Label: WTe2
reinit: -----------------------------------------------------------------------

initatom: Reading input for the pseudopotentials and atomic orbitals ----------
Species number:   1 Atomic number:   74 Label: W
Species number:   2 Atomic number:   52 Label: Te
 

 ---- Processing specs for species: W
Ground state valence configuration:   6s02  5d04
PSML file version: 1.1
Using libxc ids:  101 130
GGA--PBE XC_GGA_X_PBE--XC_GGA_C_PBE pb
 Using ATOM defaults for log grid...
PSML uuid: aa7a7c90-4224-11e8-4f8b-f188ff7dd6fa

 ---- Processing specs for species: Te
Ground state valence configuration:   5s02  5p04
PSML file version: 1.1
Using libxc ids:  101 130
GGA--PBE XC_GGA_X_PBE--XC_GGA_C_PBE pb
 Using ATOM defaults for log grid...
PSML uuid: edaa6890-471a-11e8-6356-ec79ff4cd4ef
Semicore shell(s) with  8 electrons included in the valence for W
Semicore shell(s) with 10 electrons included in the valence for Te

---- Pseudopotential check for W 

Pseudopotential generated from a fully relativistic atomic calculation
There are spin-orbit semi-local pseudopotentials available

Pseudized shells:
5s( 2.00) rc: 1.61
5p( 6.00) rc: 1.61
5d( 4.00) rc: 1.61
5f( 0.00) rc: 2.02
Valence configuration for ps generation: 5s:5p:5d:6s: Total charge:  14.000000
Semicore shell(s): 5s 5p

---- Pseudopotential check for Te

Pseudopotential generated from a fully relativistic atomic calculation
There are spin-orbit semi-local pseudopotentials available

Pseudized shells:
5s( 2.00) rc: 2.27
5p( 4.00) rc: 1.92
4d(10.00) rc: 1.81
Valence configuration for ps generation: 4d:5s:5p: Total charge:  16.000000
Semicore shell(s): 4d
For W, standard SIESTA heuristics set lmxkb to 3
 (one more than the basis l, including polarization orbitals).
Use PS.lmax or PS.KBprojectors blocks to override.
For Te, standard SIESTA heuristics set lmxkb to 3
 (one more than the basis l, including polarization orbitals).
Use PS.lmax or PS.KBprojectors blocks to override.
Te pseudopotential only contains V_ls up to l=2 -- lmxkb reset.

<basis_specs>
===============================================================================
W                    Z=  74    Mass=  183.85        Charge= 0.17977+309
Lmxo=2 Lmxkb= 3    BasisType=split      Semic=T
L=0  Nsemic=1  Cnfigmx=6
          i=1  nzeta=1  polorb=0  (5s)
            splnorm:   0.15000    
               vcte:    0.0000    
               rinn:    0.0000    
               qcoe:    0.0000    
               qyuk:    0.0000    
               qwid:   0.10000E-01
                rcs:    0.0000    
            lambdas:    1.0000    
          i=2  nzeta=2  polorb=1  (6s)  (to be polarized perturbatively)
            splnorm:   0.15000    
               vcte:    0.0000    
               rinn:    0.0000    
               qcoe:    0.0000    
               qyuk:    0.0000    
               qwid:   0.10000E-01
                rcs:    0.0000      0.0000    
            lambdas:    1.0000      1.0000    
L=1  Nsemic=1  Cnfigmx=6
          i=1  nzeta=1  polorb=0  (5p)
            splnorm:   0.15000    
               vcte:    0.0000    
               rinn:    0.0000    
               qcoe:    0.0000    
               qyuk:    0.0000    
               qwid:   0.10000E-01
                rcs:    0.0000    
            lambdas:    1.0000    
          i=2  nzeta=0  polorb=0  (6p)  (empty shell -- could be pol. orbital)
L=2  Nsemic=0  Cnfigmx=5
          i=1  nzeta=2  polorb=0  (5d)
            splnorm:   0.15000    
               vcte:    0.0000    
               rinn:    0.0000    
               qcoe:    0.0000    
               qyuk:    0.0000    
               qwid:   0.10000E-01
                rcs:    0.0000      0.0000    
            lambdas:    1.0000      1.0000    
-------------------------------------------------------------------------------
L=0  Nkbl=2  erefs: 0.17977+309 0.17977+309
L=1  Nkbl=2  erefs: 0.17977+309 0.17977+309
L=2  Nkbl=1  erefs: 0.17977+309
L=3  Nkbl=1  erefs: 0.17977+309
===============================================================================
</basis_specs>

atom: Called for W                     (Z =  74)

read_vps: Pseudopotential generation method:
read_vps: ONCVPSP-3.Hamann's oncvpsp                        
Valence charge in pseudo generation:   14.00000

read_vps: Pseudopotential includes a core correction:
read_vps: Pseudo-core for xc-correction

xc_check: Exchange-correlation functional:
xc_check: GGA Perdew, Burke & Ernzerhof 1996
Got Vlocal (oncv-fit) from psml data
Choosing vlocal chloc cutoff:  4.994954
qtot up to nchloc:   13.99954766
atom: Maximum radius forchloc:    4.99495
atom: Maximum radius for r*vlocal+2*Zval:    4.99495
Reading KB projs from W psml data
Using lj projectors in PSML file

PSML: Kleinman-Bylander projectors: 
   l= 0   rc=  1.641999   Ekb=  3.682478
   l= 0   rc=  1.641999   Ekb= 26.005903
j- l= 1   rc=  1.641999   Ekb=  2.792811
j+ l= 1   rc=  1.641999   Ekb=  2.781870
j- l= 1   rc=  1.641999   Ekb= 16.868680
j+ l= 1   rc=  1.641999   Ekb= 18.601262
j- l= 2   rc=  1.641999   Ekb=  1.058539
j+ l= 2   rc=  1.641999   Ekb=  1.000898
j- l= 2   rc=  1.641999   Ekb=  8.883367
j+ l= 2   rc=  1.641999   Ekb=  8.974346
j- l= 3   rc=  2.056321   Ekb=  1.760120
j+ l= 3   rc=  2.056321   Ekb=  1.779926
j- l= 3   rc=  2.056321   Ekb= 74.891207
j+ l= 3   rc=  2.056321   Ekb=125.668686

PSML: Total number of  Kleinman-Bylander projectors:  62
atom: -------------------------------------------------------------------------

atom: SANKEY-TYPE ORBITALS:
atom: Selected multiple-zeta basis: split     

SPLIT: Orbitals with angular momentum L= 0

SPLIT: Basis orbitals for state 5s

SPLIT: PAO cut-off radius determined from an
SPLIT: energy shift=  0.002000 Ry

   izeta = 1
                 lambda =    1.000000
                     rc =    3.145347
                 energy =   -5.795180
                kinetic =    2.161501
    potential(screened) =   -7.956680
       potential(ionic) =  -24.350275

SPLIT: Basis orbitals for state 6s

SPLIT: PAO cut-off radius determined from an
SPLIT: energy shift=  0.002000 Ry

   izeta = 1
                 lambda =    1.000000
                     rc =    7.932202
                 energy =   -0.485368
                kinetic =    1.082144
    potential(screened) =   -1.567512
       potential(ionic) =  -11.187274

   izeta = 2
                 rmatch =    6.025072
              splitnorm =    0.150000
                 energy =   -0.435815
                kinetic =    1.534712
    potential(screened) =   -1.970527
       potential(ionic) =  -12.601502

SPLIT: Orbitals with angular momentum L= 1

SPLIT: Basis orbitals for state 5p

SPLIT: PAO cut-off radius determined from an
SPLIT: energy shift=  0.002000 Ry

   izeta = 1
                 lambda =    1.000000
                     rc =    3.746889
                 energy =   -3.186951
                kinetic =    3.662029
    potential(screened) =   -6.848980
       potential(ionic) =  -22.413782

SPLIT: Orbitals with angular momentum L= 2

SPLIT: Basis orbitals for state 5d

SPLIT: PAO cut-off radius determined from an
SPLIT: energy shift=  0.002000 Ry

   izeta = 1
                 lambda =    1.000000
                     rc =    7.000140
                 energy =   -0.327007
                kinetic =    3.147896
    potential(screened) =   -3.474903
       potential(ionic) =  -15.854442

   izeta = 2
                 rmatch =    3.794020
              splitnorm =    0.150000
                 energy =   -0.193209
                kinetic =    4.331940
    potential(screened) =   -4.525149
       potential(ionic) =  -18.354753

POLgen: Perturbative polarization orbital with L=  1

POLgen: Polarization orbital for state 6s

   izeta = 1
                     rc =    7.932202
                 energy =   -0.042591
                kinetic =    1.238667
    potential(screened) =   -1.281258
       potential(ionic) =   -9.767591
atom: Total number of Sankey-type orbitals: 19

atm_pop: Valence configuration (for local Pseudopot. screening):
 5s( 2.00) 6s( 2.00)                                                  
 5p( 6.00) 6p( 0.00)                                                  
 5d( 4.00)                                                            
Vna: chval, zval:   14.00000  14.00000

Vna:  Cut-off radius for the neutral-atom potential:   7.932202
comcore: Pseudo-core radius Rcore=  3.067687

atom: _________________________________________________________________________

<basis_specs>
===============================================================================
Te                   Z=  52    Mass=  127.60        Charge= 0.17977+309
Lmxo=2 Lmxkb= 2    BasisType=split      Semic=T
L=0  Nsemic=0  Cnfigmx=5
          i=1  nzeta=2  polorb=0  (5s)
            splnorm:   0.15000    
               vcte:    0.0000    
               rinn:    0.0000    
               qcoe:    0.0000    
               qyuk:    0.0000    
               qwid:   0.10000E-01
                rcs:    0.0000      0.0000    
            lambdas:    1.0000      1.0000    
L=1  Nsemic=0  Cnfigmx=5
          i=1  nzeta=2  polorb=1  (5p)  (to be polarized perturbatively)
            splnorm:   0.15000    
               vcte:    0.0000    
               rinn:    0.0000    
               qcoe:    0.0000    
               qyuk:    0.0000    
               qwid:   0.10000E-01
                rcs:    0.0000      0.0000    
            lambdas:    1.0000      1.0000    
L=2  Nsemic=1  Cnfigmx=5
          i=1  nzeta=1  polorb=0  (4d)
            splnorm:   0.15000    
               vcte:    0.0000    
               rinn:    0.0000    
               qcoe:    0.0000    
               qyuk:    0.0000    
               qwid:   0.10000E-01
                rcs:    0.0000    
            lambdas:    1.0000    
          i=2  nzeta=0  polorb=0  (5d)  (perturbative polarization orbital)
-------------------------------------------------------------------------------
L=0  Nkbl=1  erefs: 0.17977+309
L=1  Nkbl=1  erefs: 0.17977+309
L=2  Nkbl=2  erefs: 0.17977+309 0.17977+309
===============================================================================
</basis_specs>

atom: Called for Te                    (Z =  52)

read_vps: Pseudopotential generation method:
read_vps: ONCVPSP-3.Hamann's oncvpsp                        
Valence charge in pseudo generation:   16.00000

read_vps: Pseudopotential includes a core correction:
read_vps: Pseudo-core for xc-correction

xc_check: Exchange-correlation functional:
xc_check: GGA Perdew, Burke & Ernzerhof 1996
Got Vlocal (oncv-fit) from psml data
Choosing vlocal chloc cutoff:  3.574206
qtot up to nchloc:   15.99878151
atom: Maximum radius forchloc:    3.57421
atom: Maximum radius for r*vlocal+2*Zval:    3.57421
Reading KB projs from Te psml data
Using lj projectors in PSML file

PSML: Kleinman-Bylander projectors: 
   l= 0   rc=  2.307664   Ekb=  1.571257
   l= 0   rc=  2.307664   Ekb= 12.749547
j- l= 1   rc=  1.961544   Ekb=  1.822369
j+ l= 1   rc=  1.961544   Ekb=  2.479422
j- l= 1   rc=  1.961544   Ekb= 10.232247
j+ l= 1   rc=  1.961544   Ekb= 11.939201
j- l= 2   rc=  1.842697   Ekb=-12.109268
j+ l= 2   rc=  1.842697   Ekb=-11.866367
j- l= 2   rc=  1.842697   Ekb= -3.780429
j+ l= 2   rc=  1.842697   Ekb= -3.663335

PSML: Total number of  Kleinman-Bylander projectors:  34
atom: -------------------------------------------------------------------------

atom: SANKEY-TYPE ORBITALS:
atom: Selected multiple-zeta basis: split     

SPLIT: Orbitals with angular momentum L= 0

SPLIT: Basis orbitals for state 5s

SPLIT: PAO cut-off radius determined from an
SPLIT: energy shift=  0.002000 Ry

   izeta = 1
                 lambda =    1.000000
                     rc =    5.892900
                 energy =   -1.107303
                kinetic =    0.679045
    potential(screened) =   -1.786348
       potential(ionic) =  -15.968081

   izeta = 2
                 rmatch =    4.204877
              splitnorm =    0.150000
                 energy =   -0.969269
                kinetic =    1.088653
    potential(screened) =   -2.057923
       potential(ionic) =  -17.099290

SPLIT: Orbitals with angular momentum L= 1

SPLIT: Basis orbitals for state 5p

SPLIT: PAO cut-off radius determined from an
SPLIT: energy shift=  0.002000 Ry

   izeta = 1
                 lambda =    1.000000
                     rc =    7.758198
                 energy =   -0.435904
                kinetic =    0.836435
    potential(screened) =   -1.272339
       potential(ionic) =  -13.242395

   izeta = 2
                 rmatch =    5.009052
              splitnorm =    0.150000
                 energy =   -0.342865
                kinetic =    1.223467
    potential(screened) =   -1.566332
       potential(ionic) =  -14.971818

SPLIT: Orbitals with angular momentum L= 2

SPLIT: Basis orbitals for state 4d

SPLIT: PAO cut-off radius determined from an
SPLIT: energy shift=  0.002000 Ry

   izeta = 1
                 lambda =    1.000000
                     rc =    3.399887
                 energy =   -3.054041
                kinetic =   10.927922
    potential(screened) =  -13.981963
       potential(ionic) =  -34.560485

POLgen: Perturbative polarization orbital with L=  2

POLgen: Polarization orbital for state 5p

   izeta = 1
                     rc =    7.758198
                 energy =    0.237705
                kinetic =    1.251824
    potential(screened) =   -1.014119
       potential(ionic) =  -11.578557
atom: Total number of Sankey-type orbitals: 18

atm_pop: Valence configuration (for local Pseudopot. screening):
 5s( 2.00)                                                            
 5p( 4.00)                                                            
 4d(10.00) 5d( 0.00)                                                  
Vna: chval, zval:   16.00000  16.00000

Vna:  Cut-off radius for the neutral-atom potential:   7.758198
comcore: Pseudo-core radius Rcore=  2.818597

atom: _________________________________________________________________________

prinput: Basis input 
* WARNING: This information might be incomplete!!!
----------------------------------------------------------

PAO.BasisType split     

%block ChemicalSpeciesLabel
    1   74 W                       # Species index, atomic number, species label
    2   52 Te                      # Species index, atomic number, species label
%endblock ChemicalSpeciesLabel

%block PAO.Basis                 # Define Basis set
# WARNING: This information might be incomplete!!!
W                     4                    # Species label, number of l-shells
 n=5   0   1                         # n, l, Nzeta 
   3.145   
   1.000   
 n=6   0   2 P   1                   # n, l, Nzeta, Polarization, NzetaPol
   7.932      6.025   
   1.000      1.000   
 n=5   1   1                         # n, l, Nzeta 
   3.747   
   1.000   
 n=5   2   2                         # n, l, Nzeta 
   7.000      3.794   
   1.000      1.000   
Te                    3                    # Species label, number of l-shells
 n=5   0   2                         # n, l, Nzeta 
   5.893      4.205   
   1.000      1.000   
 n=5   1   2 P   1                   # n, l, Nzeta, Polarization, NzetaPol
   7.758      5.009   
   1.000      1.000   
 n=4   2   1                         # n, l, Nzeta 
   3.400   
   1.000   
%endblock PAO.Basis

prinput: ----------------------------------------------------------------------

 CH_OVERLAP: Z1=   13.9876841749611       ZVAL1=   14.0000000000000     
 CH_OVERLAP: Z2=   13.9876841749611       ZVAL2=   14.0000000000000     
 CH_OVERLAP: Z1=   16.0156784207762       ZVAL1=   16.0000000000000     
 CH_OVERLAP: Z2=   16.0156784207762       ZVAL2=   16.0000000000000     
 CH_OVERLAP: Z1=   16.0156784207762       ZVAL1=   16.0000000000000     
 CH_OVERLAP: Z2=   13.9876841749611       ZVAL2=   14.0000000000000     
Dumping basis to NetCDF file W.ion.nc
Dumping basis to NetCDF file Te.ion.nc
coor:   Atomic-coordinates input format  =     Cartesian coordinates
coor:                                          (in Angstroms)

ioxv: Reading coordinates and velocities from file
! Info in XV file prevails over previous structure input

siesta: Atomic coordinates (Bohr) and species
siesta:      1.66639   2.12241   0.20545  1        1
siesta:     -1.66639  -2.12241  -0.20545  1        2
siesta:     -1.66639   5.10138  -2.78891  2        3
siesta:     -1.66639   0.94326   4.00211  2        4
siesta:      1.66639   6.85384   2.78891  2        5
siesta:      1.66639  -0.94326  -4.00211  2        6

siesta: System type = slab      

initatomlists: Number of atoms, orbitals, and projectors:      6   110   260

siesta: ******************** Simulation parameters ****************************
siesta:
siesta: The following are some of the parameters of the simulation.
siesta: A complete list of the parameters used, including default values,
siesta: can be found in file out.fdf
siesta:
redata: Spin configuration                          = spin-orbit+offsite
redata: Number of spin components                   = 8
redata: Time-Reversal Symmetry                      = F
redata: Spin spiral                                 = F
redata: Long output                                 =   F
redata: Number of Atomic Species                    =        2
redata: Charge density info will appear in .RHO file
redata: Write Mulliken Pop.                         = Atomic and Orbital charges
redata: Matel table size (NRTAB)                    =     1024
redata: Mesh Cutoff                                 =   500.0000 Ry
redata: Net charge of the system                    =     0.0000 |e|
redata: Min. number of SCF Iter                     =        0
redata: Max. number of SCF Iter                     =      200
redata: SCF convergence failure will abort job
redata: SCF mix quantity                            = Hamiltonian
redata: Mix DM or H after convergence               =   F
redata: Recompute H after scf cycle                 =   F
redata: Mix DM in first SCF step                    =   F
redata: Write Pulay info on disk                    =   F
redata: New DM Occupancy tolerance                  = 0.000000000001
redata: No kicks to SCF
redata: DM Mixing Weight for Kicks                  =     0.5000
redata: Require Harris convergence for SCF          =   F
redata: Harris energy tolerance for SCF             =     0.000100 eV
redata: Require DM convergence for SCF              =   T
redata: DM tolerance for SCF                        =     0.000010
redata: Require EDM convergence for SCF             =   F
redata: EDM tolerance for SCF                       =     0.001000 eV
redata: Require H convergence for SCF               =   T
redata: Hamiltonian tolerance for SCF               =     0.000010 eV
redata: Require (free) Energy convergence for SCF   =   F
redata: (free) Energy tolerance for SCF             =     0.000100 eV
redata: Using Saved Data (generic)                  =   F
redata: Use continuation files for DM               =   T
redata: Neglect nonoverlap interactions             =   F
redata: Method of Calculation                       = Diagonalization
redata: Electronic Temperature                      =    92.8355 K
redata: Fix the spin of the system                  =   F
redata: Split SR and SO contributions               =   F
redata: Max. number of TDED Iter                    =        1
redata: Number of TDED substeps                     =        3
redata: Dynamics option                             = Single-point calculation
mix.SCF: Pulay mixing                            = Pulay
mix.SCF:    Variant                              = stable
mix.SCF:    History steps                        = 5
mix.SCF:    Linear mixing weight                 =     0.250000
mix.SCF:    Mixing weight                        =     0.250000
mix.SCF:    SVD condition                        = 0.1000E-07
mix.SCF:    Restart steps                        = 29
mix.SCF:    Restart save steps                   = 1
mix.SCF:    Number of mixing iterations          = 29
mix.SCF:    Following mixer                      = Linear-Kick
mix.SCF: Linear mixing                           = Linear-Kick
mix.SCF:    Mixing weight                        =     0.500000
mix.SCF:    Number of mixing iterations          = 1
mix.SCF:    Following mixer                      = Pulay
mix.SCF: Spin-component mixing                   all
redata: Save all siesta data in one NC              =   F
redata: ***********************************************************************

%block SCF.Mixers
  Pulay
  Linear-Kick
%endblock SCF.Mixers

%block SCF.Mixer.Pulay
  # Mixing method
  method pulay
  variant stable

  # Mixing options
  weight 0.2500
  weight.linear 0.2500
  history 5
  restart 29
  restart.save 1

  # Continuation options
  iterations 29
  next Linear-Kick
%endblock SCF.Mixer.Pulay

%block SCF.Mixer.Linear-Kick
  # Mixing method
  method linear

  # Mixing options
  weight 0.5000

  # Continuation options
  iterations 1
  next Pulay
%endblock SCF.Mixer.Linear-Kick
 
DM_history_depth set to one: no extrapolation allowed by default for geometry relaxation
Size of DM history Fstack: 1
Total number of electrons:    92.000000
Total ionic charge:    92.000000

* ProcessorY, Blocksize:    1   4


* Orbital distribution balance (max,min):     8     4

k-point displ. along   3 input, could be:     0.50    0.00

Time-reversal symmetry not used.

siesta: k-grid: Number of k-points =       112
siesta: k-points from Monkhorst-Pack grid
siesta: k-cutoff (effective) =    24.691 Ang
siesta: k-point supercell and displacements
siesta: k-grid:   14   0   0      0.500
siesta: k-grid:    0   8   0      0.500
siesta: k-grid:    0   0   1      0.500
 
diag: Algorithm                                     = D&C
diag: Parallel over k                               =   F
diag: Use parallel 2D distribution                  =   T
diag: Parallel block-size                           = 4
diag: Parallel distribution                         =     4 x     6
diag: Used triangular part                          = Lower
diag: Absolute tolerance                            =  0.100E-15
diag: Orthogonalization factor                      =  0.100E-05
diag: Memory factor                                 =  1.0000
Using current reciprocal lattice vectors for BandLinesScale
Beware any cell changes by the end of the run
Using current reciprocal lattice vectors for BandLinesScale
Beware any cell changes by the end of the run

superc: Internal auxiliary supercell:     5 x     5 x     1  =      25
superc: Number of atoms, orbitals, and projectors:    150   2750   6500
 
 max_size            4
 max_size            4
 max_size            4
 max_size            4
 max_size            4
 max_size            4
 max_size            4
 max_size            4
 max_size            4
 max_size            4
 max_size            4
 max_size            4
 max_size            4
 max_size            4
 max_size            4
 max_size            4
 max_size            4
 max_size            4
 max_size            4
 max_size            4
 max_size            4
 max_size            4
 max_size            4
 
----------------------------------------------------------------------
 Output of crystal symmetries 
 
 Int Sp Group number =     11
 Int Sp Group symbol = P2_1/m
 Bravais lattice is     47  Pmmm
 Hall number =     60
 
 number of symops =      4
 symops and translations in reduced coordinates = 
     1     0     0
     0     1     0
     0     0     1
    0.0000000000E+00      0.0000000000E+00      0.0000000000E+00
 
    -1     0     0
     0    -1     0
     0     0    -1
    0.0000000000E+00      0.0000000000E+00      0.0000000000E+00
 
     1     0     0
     0    -1     0
     0     0    -1
    0.5000000000E+00      0.0000000000E+00      0.0000000000E+00
 
    -1     0     0
     0     1     0
     0     0     1
    0.5000000000E+00      0.0000000000E+00      0.0000000000E+00
 
 symops and translations in cartesian coordinates = 
recipcell  = 
recipcell  = 
recipcell  = 
    0.1000000000E+01    0.0000000000E+00    0.0000000000E+00
    0.0000000000E+00    0.1000000000E+01    0.0000000000E+00
    0.0000000000E+00    0.0000000000E+00    0.1000000000E+01
    0.0000000000E+00      0.0000000000E+00      0.0000000000E+00
 
   -0.1000000000E+01    0.0000000000E+00    0.0000000000E+00
    0.0000000000E+00   -0.1000000000E+01    0.0000000000E+00
    0.0000000000E+00    0.0000000000E+00   -0.1000000000E+01
    0.0000000000E+00      0.0000000000E+00      0.0000000000E+00
 
    0.1000000000E+01    0.0000000000E+00    0.0000000000E+00
    0.0000000000E+00   -0.1000000000E+01    0.0000000000E+00
    0.0000000000E+00    0.0000000000E+00   -0.1000000000E+01
    0.3332785267E+01      0.0000000000E+00      0.0000000000E+00
 
   -0.1000000000E+01    0.0000000000E+00    0.0000000000E+00
    0.0000000000E+00    0.1000000000E+01    0.0000000000E+00
    0.0000000000E+00    0.0000000000E+00    0.1000000000E+01
    0.3332785267E+01      0.0000000000E+00      0.0000000000E+00
 
----------------------------------------------------------------------
 reciprocal space symops in reduced coordinates = 
     1     0     0
     0     1     0
     0     0     1
 
    -1     0     0
     0    -1     0
     0     0    -1
 
     1     0     0
     0    -1     0
     0     0    -1
 
    -1     0     0
     0     1     0
recipcell  = 
recipcell  = 
    0.1500246670E+00    0.0000000000E+00    0.0000000000E+00
    0.0000000000E+00    0.8364546138E-01    0.0000000000E+00
    0.0000000000E+00    0.0000000000E+00    0.5084817911E-02
 
 symop  = 
    0.1000000000E+01    0.0000000000E+00    0.0000000000E+00
    0.0000000000E+00    0.1000000000E+01    0.0000000000E+00
    0.0000000000E+00    0.0000000000E+00    0.1000000000E+01
 invsym op = 
    0.1000000000E+01    0.0000000000E+00    0.0000000000E+00
    0.0000000000E+00    0.1000000000E+01    0.0000000000E+00
    0.0000000000E+00    0.0000000000E+00    0.1000000000E+01
recipcell  = 
    0.1500246670E+00    0.0000000000E+00    0.0000000000E+00
    0.0000000000E+00    0.8364546138E-01    0.0000000000E+00
    0.0000000000E+00    0.0000000000E+00    0.5084817911E-02
 
 symop  = 
    0.1000000000E+01    0.0000000000E+00    0.0000000000E+00
    0.0000000000E+00    0.1000000000E+01    0.0000000000E+00
    0.0000000000E+00    0.0000000000E+00    0.1000000000E+01
 invsym op = 
    0.1000000000E+01    0.0000000000E+00    0.0000000000E+00
    0.0000000000E+00    0.1000000000E+01    0.0000000000E+00
    0.0000000000E+00    0.0000000000E+00    0.1000000000E+01
recipcell  = 
    0.1500246670E+00    0.0000000000E+00    0.0000000000E+00
    0.0000000000E+00    0.8364546138E-01    0.0000000000E+00
    0.0000000000E+00    0.0000000000E+00    0.5084817911E-02
 
 symop  = 
    0.1000000000E+01    0.0000000000E+00    0.0000000000E+00
    0.0000000000E+00    0.1000000000E+01    0.0000000000E+00
    0.0000000000E+00    0.0000000000E+00    0.1000000000E+01
 invsym op = 
    0.1000000000E+01    0.0000000000E+00    0.0000000000E+00
    0.0000000000E+00    0.1000000000E+01    0.0000000000E+00
    0.0000000000E+00    0.0000000000E+00    0.1000000000E+01
recipcell  = 
    0.1500246670E+00    0.0000000000E+00    0.0000000000E+00
    0.0000000000E+00    0.8364546138E-01    0.0000000000E+00
    0.0000000000E+00    0.0000000000E+00    0.5084817911E-02
 
 symop  = 
    0.1000000000E+01    0.0000000000E+00    0.0000000000E+00
    0.0000000000E+00    0.1000000000E+01    0.0000000000E+00
    0.0000000000E+00    0.0000000000E+00    0.1000000000E+01
 invsym op = 
    0.1000000000E+01    0.0000000000E+00    0.0000000000E+00
    0.0000000000E+00    0.1000000000E+01    0.0000000000E+00
    0.0000000000E+00    0.0000000000E+00    0.1000000000E+01
 sym vectors = 
    0.6665570534E+01    0.0000000000E+00    0.0000000000E+00
    0.0000000000E+00    0.1195522128E+02    0.0000000000E+00
    0.0000000000E+00    0.0000000000E+00    0.1966638762E+03
 should be integers  = 
    0.1000000000E+01    0.0000000000E+00    0.0000000000E+00
    0.0000000000E+00    0.1000000000E+01    0.0000000000E+00
    0.0000000000E+00    0.0000000000E+00    0.1000000000E+01
 inttrialcell  = 
     1     0     0
     0     1     0
     0     0     1
 trialcell  = 
    0.6665570534E+01    0.0000000000E+00    0.0000000000E+00
    0.0000000000E+00    0.1195522128E+02    0.0000000000E+00
    0.0000000000E+00    0.0000000000E+00    0.1966638762E+03
 
 symop  = 
   -0.1000000000E+01    0.0000000000E+00    0.0000000000E+00
recipcell  = 
    0.1500246670E+00    0.0000000000E+00    0.0000000000E+00
    0.0000000000E+00    0.8364546138E-01    0.0000000000E+00
    0.0000000000E+00    0.0000000000E+00    0.5084817911E-02
 
 symop  = 
    0.1000000000E+01    0.0000000000E+00    0.0000000000E+00
    0.0000000000E+00    0.1000000000E+01    0.0000000000E+00
    0.0000000000E+00    0.0000000000E+00    0.1000000000E+01
 invsym op = 
    0.1000000000E+01    0.0000000000E+00    0.0000000000E+00
    0.0000000000E+00    0.1000000000E+01    0.0000000000E+00
    0.0000000000E+00    0.0000000000E+00    0.1000000000E+01
 sym vectors = 
    0.6665570534E+01    0.0000000000E+00    0.0000000000E+00
    0.0000000000E+00    0.1195522128E+02    0.0000000000E+00
    0.0000000000E+00    0.0000000000E+00    0.1966638762E+03
recipcell  = 
    0.1500246670E+00    0.0000000000E+00    0.0000000000E+00
    0.0000000000E+00    0.8364546138E-01    0.0000000000E+00
    0.0000000000E+00    0.0000000000E+00    0.5084817911E-02
 
 symop  = 
    0.1000000000E+01    0.0000000000E+00    0.0000000000E+00
    0.0000000000E+00    0.1000000000E+01    0.0000000000E+00
    0.0000000000E+00    0.0000000000E+00    0.1000000000E+01
 invsym op = 
    0.1000000000E+01    0.0000000000E+00    0.0000000000E+00
    0.0000000000E+00    0.1000000000E+01    0.0000000000E+00
    0.0000000000E+00    0.0000000000E+00    0.1000000000E+01
 sym vectors = 
    0.6665570534E+01    0.0000000000E+00    0.0000000000E+00
    0.0000000000E+00    0.1195522128E+02    0.0000000000E+00
    0.0000000000E+00    0.0000000000E+00    0.1966638762E+03
 should be integers  = 
    0.1000000000E+01    0.0000000000E+00    0.0000000000E+00
    0.0000000000E+00    0.1000000000E+01    0.0000000000E+00
    0.0000000000E+00    0.0000000000E+00    0.1000000000E+01
 inttrialcell  = 
     1     0     0
     0     1     0
     0     0     1
 trialcell  = 
    0.6665570534E+01    0.0000000000E+00    0.0000000000E+00
    0.0000000000E+00    0.1195522128E+02    0.0000000000E+00
    0.0000000000E+00    0.0000000000E+00    0.1966638762E+03
 
 symop  = 
   -0.1000000000E+01    0.0000000000E+00    0.0000000000E+00
    0.0000000000E+00   -0.1000000000E+01    0.0000000000E+00
    0.0000000000E+00    0.0000000000E+00   -0.1000000000E+01
 invsym op = 
   -0.1000000000E+01    0.0000000000E+00    0.0000000000E+00
    0.0000000000E+00   -0.1000000000E+01    0.0000000000E+00
    0.0000000000E+00    0.0000000000E+00   -0.1000000000E+01
 sym vectors = 
   -0.6665570534E+01    0.0000000000E+00    0.0000000000E+00
    0.0000000000E+00   -0.1195522128E+02    0.0000000000E+00
    0.0000000000E+00    0.0000000000E+00   -0.1966638762E+03
 should be integers  = 
   -0.1000000000E+01    0.0000000000E+00    0.0000000000E+00
    0.0000000000E+00   -0.1000000000E+01    0.0000000000E+00
    0.0000000000E+00    0.0000000000E+00   -0.1000000000E+01
 inttrialcell  = 
    -1     0     0
     0    -1     0
     0     0    -1
 trialcell  = 
    0.6665570534E+01    0.0000000000E+00    0.0000000000E+00
    0.0000000000E+00    0.1195522128E+02    0.0000000000E+00
    0.0000000000E+00    0.0000000000E+00    0.1966638762E+03
 
 symop  = 
    0.1000000000E+01    0.0000000000E+00    0.0000000000E+00
    0.0000000000E+00   -0.1000000000E+01    0.0000000000E+00
    0.0000000000E+00    0.0000000000E+00   -0.1000000000E+01
 invsym op = 
    0.1000000000E+01    0.0000000000E+00    0.0000000000E+00
    0.0000000000E+00   -0.1000000000E+01    0.0000000000E+00
    0.0000000000E+00    0.0000000000E+00   -0.1000000000E+01
 sym vectors = 
    0.6665570534E+01    0.0000000000E+00    0.0000000000E+00
    0.0000000000E+00   -0.1195522128E+02    0.0000000000E+00
    0.0000000000E+00    0.0000000000E+00   -0.1966638762E+03
 should be integers  = 
    0.1000000000E+01    0.0000000000E+00    0.0000000000E+00
    0.0000000000E+00   -0.1000000000E+01    0.0000000000E+00
    0.0000000000E+00    0.0000000000E+00   -0.1000000000E+01
 inttrialcell  = 
     1     0     0
     0    -1     0
     0     0    -1
 trialcell  = 
    0.6665570534E+01    0.0000000000E+00    0.0000000000E+00
recipcell  = 
    0.1500246670E+00    0.0000000000E+00    0.0000000000E+00
    0.0000000000E+00    0.8364546138E-01    0.0000000000E+00
    0.0000000000E+00    0.0000000000E+00    0.5084817911E-02
 
 symop  = 
    0.1000000000E+01    0.0000000000E+00    0.0000000000E+00
    0.0000000000E+00    0.1000000000E+01    0.0000000000E+00
    0.0000000000E+00    0.0000000000E+00    0.1000000000E+01
 invsym op = 
    0.1000000000E+01    0.0000000000E+00    0.0000000000E+00
    0.0000000000E+00    0.1000000000E+01    0.0000000000E+00
    0.0000000000E+00    0.0000000000E+00    0.1000000000E+01
 sym vectors = 
    0.6665570534E+01    0.0000000000E+00    0.0000000000E+00
    0.0000000000E+00    0.1195522128E+02    0.0000000000E+00
    0.0000000000E+00    0.0000000000E+00    0.1966638762E+03
 should be integers  = 
    0.1000000000E+01    0.0000000000E+00    0.0000000000E+00
    0.0000000000E+00    0.1000000000E+01    0.0000000000E+00
    0.0000000000E+00    0.0000000000E+00    0.1000000000E+01
 inttrialcell  = 
     1     0     0
     0     1     0
     0     0     1
 trialcell  = 
    0.6665570534E+01    0.0000000000E+00    0.0000000000E+00
    0.0000000000E+00    0.1195522128E+02    0.0000000000E+00
    0.0000000000E+00    0.0000000000E+00    0.1966638762E+03
 
 symop  = 
   -0.1000000000E+01    0.0000000000E+00    0.0000000000E+00
    0.0000000000E+00   -0.1000000000E+01    0.0000000000E+00
    0.0000000000E+00    0.0000000000E+00   -0.1000000000E+01
 invsym op = 
   -0.1000000000E+01    0.0000000000E+00    0.0000000000E+00
    0.0000000000E+00   -0.1000000000E+01    0.0000000000E+00
    0.0000000000E+00    0.0000000000E+00   -0.1000000000E+01
 sym vectors = 
   -0.6665570534E+01    0.0000000000E+00    0.0000000000E+00
    0.0000000000E+00   -0.1195522128E+02    0.0000000000E+00
    0.0000000000E+00    0.0000000000E+00   -0.1966638762E+03
 should be integers  = 
   -0.1000000000E+01    0.0000000000E+00    0.0000000000E+00
    0.0000000000E+00   -0.1000000000E+01    0.0000000000E+00
    0.0000000000E+00    0.0000000000E+00   -0.1000000000E+01
 inttrialcell  = 
    -1     0     0
     0    -1     0
     0     0    -1
 trialcell  = 
    0.6665570534E+01    0.0000000000E+00    0.0000000000E+00
    0.0000000000E+00    0.1195522128E+02    0.0000000000E+00
    0.0000000000E+00    0.0000000000E+00    0.1966638762E+03
 
 symop  = 
    0.1000000000E+01    0.0000000000E+00    0.0000000000E+00
    0.0000000000E+00   -0.1000000000E+01    0.0000000000E+00
    0.0000000000E+00    0.0000000000E+00   -0.1000000000E+01
 invsym op = 
    0.1000000000E+01    0.0000000000E+00    0.0000000000E+00
    0.0000000000E+00   -0.1000000000E+01    0.0000000000E+00
    0.0000000000E+00    0.0000000000E+00   -0.1000000000E+01
 sym vectors = 
    0.6665570534E+01    0.0000000000E+00    0.0000000000E+00
    0.0000000000E+00   -0.1195522128E+02    0.0000000000E+00
    0.0000000000E+00    0.0000000000E+00   -0.1966638762E+03
 should be integers  = 
    0.1000000000E+01    0.0000000000E+00    0.0000000000E+00
    0.0000000000E+00   -0.1000000000E+01    0.0000000000E+00
    0.0000000000E+00    0.0000000000E+00   -0.1000000000E+01
 inttrialcell  = 
     1     0     0
     0    -1     0
     0     0    -1
 trialcell  = 
    0.6665570534E+01    0.0000000000E+00    0.0000000000E+00
    0.0000000000E+00    0.1195522128E+02    0.0000000000E+00
    0.0000000000E+00    0.0000000000E+00    0.1966638762E+03
 
 symop  = 
   -0.1000000000E+01    0.0000000000E+00    0.0000000000E+00
    0.0000000000E+00    0.1000000000E+01    0.0000000000E+00
    0.0000000000E+00    0.0000000000E+00    0.1000000000E+01
 invsym op = 
   -0.1000000000E+01    0.0000000000E+00    0.0000000000E+00
    0.0000000000E+00    0.1000000000E+01    0.0000000000E+00
    0.0000000000E+00    0.0000000000E+00    0.1000000000E+01
 sym vectors = 
   -0.6665570534E+01    0.0000000000E+00    0.0000000000E+00
    0.0000000000E+00    0.1195522128E+02    0.0000000000E+00
    0.0000000000E+00    0.0000000000E+00    0.1966638762E+03
 should be integers  = 
   -0.1000000000E+01    0.0000000000E+00    0.0000000000E+00
recipcell  = 
    0.1500246670E+00    0.0000000000E+00    0.0000000000E+00
    0.0000000000E+00    0.8364546138E-01    0.0000000000E+00
    0.0000000000E+00    0.0000000000E+00    0.5084817911E-02
 
 symop  = 
    0.1000000000E+01    0.0000000000E+00    0.0000000000E+00
    0.0000000000E+00    0.1000000000E+01    0.0000000000E+00
    0.0000000000E+00    0.0000000000E+00    0.1000000000E+01
 invsym op = 
    0.1000000000E+01    0.0000000000E+00    0.0000000000E+00
    0.0000000000E+00    0.1000000000E+01    0.0000000000E+00
    0.0000000000E+00    0.0000000000E+00    0.1000000000E+01
 sym vectors = 
    0.6665570534E+01    0.0000000000E+00    0.0000000000E+00
    0.0000000000E+00    0.1195522128E+02    0.0000000000E+00
    0.0000000000E+00    0.0000000000E+00    0.1966638762E+03
 should be integers  = 
    0.1000000000E+01    0.0000000000E+00    0.0000000000E+00
    0.0000000000E+00    0.1000000000E+01    0.0000000000E+00
    0.0000000000E+00    0.0000000000E+00    0.1000000000E+01
 inttrialcell  = 
     1     0     0
     0     1     0
     0     0     1
 trialcell  = 
    0.6665570534E+01    0.0000000000E+00    0.0000000000E+00
    0.0000000000E+00    0.1195522128E+02    0.0000000000E+00
    0.0000000000E+00    0.0000000000E+00    0.1966638762E+03
 
 symop  = 
   -0.1000000000E+01    0.0000000000E+00    0.0000000000E+00
    0.0000000000E+00   -0.1000000000E+01    0.0000000000E+00
    0.0000000000E+00    0.0000000000E+00   -0.1000000000E+01
 invsym op = 
   -0.1000000000E+01    0.0000000000E+00    0.0000000000E+00
    0.0000000000E+00   -0.1000000000E+01    0.0000000000E+00
    0.0000000000E+00    0.0000000000E+00   -0.1000000000E+01
 sym vectors = 
   -0.6665570534E+01    0.0000000000E+00    0.0000000000E+00
    0.0000000000E+00   -0.1195522128E+02    0.0000000000E+00
    0.0000000000E+00    0.0000000000E+00   -0.1966638762E+03
 should be integers  = 
   -0.1000000000E+01    0.0000000000E+00    0.0000000000E+00
    0.0000000000E+00   -0.1000000000E+01    0.0000000000E+00
    0.0000000000E+00    0.0000000000E+00   -0.1000000000E+01
 inttrialcell  = 
    -1     0     0
     0    -1     0
     0     0    -1
 trialcell  = 
    0.6665570534E+01    0.0000000000E+00    0.0000000000E+00
    0.0000000000E+00    0.1195522128E+02    0.0000000000E+00
    0.0000000000E+00    0.0000000000E+00    0.1966638762E+03
 
 symop  = 
    0.1000000000E+01    0.0000000000E+00    0.0000000000E+00
    0.0000000000E+00   -0.1000000000E+01    0.0000000000E+00
    0.0000000000E+00    0.0000000000E+00   -0.1000000000E+01
 invsym op = 
    0.1000000000E+01    0.0000000000E+00    0.0000000000E+00
    0.0000000000E+00   -0.1000000000E+01    0.0000000000E+00
    0.0000000000E+00    0.0000000000E+00   -0.1000000000E+01
 sym vectors = 
    0.6665570534E+01    0.0000000000E+00    0.0000000000E+00
    0.0000000000E+00   -0.1195522128E+02    0.0000000000E+00
    0.0000000000E+00    0.0000000000E+00   -0.1966638762E+03
 should be integers  = 
    0.1000000000E+01    0.0000000000E+00    0.0000000000E+00
    0.0000000000E+00   -0.1000000000E+01    0.0000000000E+00
    0.0000000000E+00    0.0000000000E+00   -0.1000000000E+01
 inttrialcell  = 
     1     0     0
     0    -1     0
     0     0    -1
 trialcell  = 
    0.6665570534E+01    0.0000000000E+00    0.0000000000E+00
    0.0000000000E+00    0.1195522128E+02    0.0000000000E+00
    0.0000000000E+00    0.0000000000E+00    0.1966638762E+03
 
 symop  = 
   -0.1000000000E+01    0.0000000000E+00    0.0000000000E+00
    0.0000000000E+00    0.1000000000E+01    0.0000000000E+00
    0.0000000000E+00    0.0000000000E+00    0.1000000000E+01
 invsym op = 
   -0.1000000000E+01    0.0000000000E+00    0.0000000000E+00
    0.0000000000E+00    0.1000000000E+01    0.0000000000E+00
    0.0000000000E+00    0.0000000000E+00    0.1000000000E+01
 sym vectors = 
   -0.6665570534E+01    0.0000000000E+00    0.0000000000E+00
    0.0000000000E+00    0.1195522128E+02    0.0000000000E+00
    0.0000000000E+00    0.0000000000E+00    0.1966638762E+03
 should be integers  = 
   -0.1000000000E+01    0.0000000000E+00    0.0000000000E+00
     0     0     1
 
 reciprocal space symops in cartesian coordinates = 
    0.1000000000E+01    0.0000000000E+00    0.0000000000E+00
    0.0000000000E+00    0.1000000000E+01    0.0000000000E+00
    0.0000000000E+00    0.0000000000E+00    0.1000000000E+01
 
   -0.1000000000E+01    0.0000000000E+00    0.0000000000E+00
    0.0000000000E+00   -0.1000000000E+01    0.0000000000E+00
    0.0000000000E+00    0.0000000000E+00   -0.1000000000E+01
 
    0.1000000000E+01    0.0000000000E+00    0.0000000000E+00
    0.0000000000E+00   -0.1000000000E+01    0.0000000000E+00
    0.0000000000E+00    0.0000000000E+00   -0.1000000000E+01
 
   -0.1000000000E+01    0.0000000000E+00    0.0000000000E+00
    0.0000000000E+00    0.1000000000E+01    0.0000000000E+00
    0.0000000000E+00    0.0000000000E+00    0.1000000000E+01
 
----------------------------------------------------------------------
 
recipcell  = 
    0.1500246670E+00    0.0000000000E+00    0.0000000000E+00
    0.0000000000E+00    0.8364546138E-01    0.0000000000E+00
    0.0000000000E+00    0.0000000000E+00    0.5084817911E-02
 
 symop  = 
    0.1000000000E+01    0.0000000000E+00    0.0000000000E+00
    0.0000000000E+00    0.1000000000E+01    0.0000000000E+00
    0.0000000000E+00    0.0000000000E+00    0.1000000000E+01
 invsym op = 
    0.1000000000E+01    0.0000000000E+00    0.0000000000E+00
    0.0000000000E+00    0.1000000000E+01    0.0000000000E+00
    0.0000000000E+00    0.0000000000E+00    0.1000000000E+01
 sym vectors = 
    0.6665570534E+01    0.0000000000E+00    0.0000000000E+00
    0.0000000000E+00    0.1195522128E+02    0.0000000000E+00
    0.0000000000E+00    0.0000000000E+00    0.1966638762E+03
 should be integers  = 
    0.1000000000E+01    0.0000000000E+00    0.0000000000E+00
    0.0000000000E+00    0.1000000000E+01    0.0000000000E+00
    0.0000000000E+00    0.0000000000E+00    0.1000000000E+01
 inttrialcell  = 
     1     0     0
     0     1     0
     0     0     1
 trialcell  = 
    0.6665570534E+01    0.0000000000E+00    0.0000000000E+00
    0.0000000000E+00    0.1195522128E+02    0.0000000000E+00
    0.0000000000E+00    0.0000000000E+00    0.1966638762E+03
 
 symop  = 
   -0.1000000000E+01    0.0000000000E+00    0.0000000000E+00
    0.0000000000E+00   -0.1000000000E+01    0.0000000000E+00
    0.0000000000E+00    0.0000000000E+00   -0.1000000000E+01
 invsym op = 
   -0.1000000000E+01    0.0000000000E+00    0.0000000000E+00
    0.0000000000E+00   -0.1000000000E+01    0.0000000000E+00
    0.0000000000E+00    0.0000000000E+00   -0.1000000000E+01
 sym vectors = 
   -0.6665570534E+01    0.0000000000E+00    0.0000000000E+00
    0.0000000000E+00   -0.1195522128E+02    0.0000000000E+00
    0.0000000000E+00    0.0000000000E+00   -0.1966638762E+03
 should be integers  = 
   -0.1000000000E+01    0.0000000000E+00    0.0000000000E+00
    0.0000000000E+00   -0.1000000000E+01    0.0000000000E+00
    0.0000000000E+00    0.0000000000E+00   -0.1000000000E+01
 inttrialcell  = 
    -1     0     0
     0    -1     0
     0     0    -1
 trialcell  = 
    0.6665570534E+01    0.0000000000E+00    0.0000000000E+00
    0.0000000000E+00    0.1195522128E+02    0.0000000000E+00
    0.0000000000E+00    0.0000000000E+00    0.1966638762E+03
 
 symop  = 
    0.1000000000E+01    0.0000000000E+00    0.0000000000E+00
    0.0000000000E+00   -0.1000000000E+01    0.0000000000E+00
    0.0000000000E+00    0.0000000000E+00   -0.1000000000E+01
 invsym op = 
    0.1000000000E+01    0.0000000000E+00    0.0000000000E+00
    0.0000000000E+00   -0.1000000000E+01    0.0000000000E+00
    0.0000000000E+00    0.0000000000E+00   -0.1000000000E+01
 sym vectors = 
    0.6665570534E+01    0.0000000000E+00    0.0000000000E+00
    0.0000000000E+00   -0.1195522128E+02    0.0000000000E+00
    0.0000000000E+00    0.0000000000E+00   -0.1966638762E+03
 should be integers  = 
    0.1000000000E+01    0.0000000000E+00    0.0000000000E+00
    0.0000000000E+00   -0.1000000000E+01    0.0000000000E+00
    0.0000000000E+00    0.0000000000E+00   -0.1000000000E+01
 inttrialcell  = 
     1     0     0
     0    -1     0
    0.1500246670E+00    0.0000000000E+00    0.0000000000E+00
    0.0000000000E+00    0.8364546138E-01    0.0000000000E+00
    0.0000000000E+00    0.0000000000E+00    0.5084817911E-02
 
 symop  = 
    0.1000000000E+01    0.0000000000E+00    0.0000000000E+00
    0.0000000000E+00    0.1000000000E+01    0.0000000000E+00
    0.0000000000E+00    0.0000000000E+00    0.1000000000E+01
 invsym op = 
    0.1000000000E+01    0.0000000000E+00    0.0000000000E+00
    0.0000000000E+00    0.1000000000E+01    0.0000000000E+00
    0.0000000000E+00    0.0000000000E+00    0.1000000000E+01
 sym vectors = 
    0.6665570534E+01    0.0000000000E+00    0.0000000000E+00
    0.0000000000E+00    0.1195522128E+02    0.0000000000E+00
    0.0000000000E+00    0.0000000000E+00    0.1966638762E+03
 should be integers  = 
    0.1000000000E+01    0.0000000000E+00    0.0000000000E+00
    0.0000000000E+00    0.1000000000E+01    0.0000000000E+00
    0.0000000000E+00    0.0000000000E+00    0.1000000000E+01
 inttrialcell  = 
     1     0     0
     0     1     0
     0     0     1
 trialcell  = 
    0.6665570534E+01    0.0000000000E+00    0.0000000000E+00
    0.0000000000E+00    0.1195522128E+02    0.0000000000E+00
    0.0000000000E+00    0.0000000000E+00    0.1966638762E+03
 
 symop  = 
   -0.1000000000E+01    0.0000000000E+00    0.0000000000E+00
    0.0000000000E+00   -0.1000000000E+01    0.0000000000E+00
    0.0000000000E+00    0.0000000000E+00   -0.1000000000E+01
 invsym op = 
   -0.1000000000E+01    0.0000000000E+00    0.0000000000E+00
    0.0000000000E+00   -0.1000000000E+01    0.0000000000E+00
    0.0000000000E+00    0.0000000000E+00   -0.1000000000E+01
 sym vectors = 
   -0.6665570534E+01    0.0000000000E+00    0.0000000000E+00
    0.0000000000E+00   -0.1195522128E+02    0.0000000000E+00
    0.0000000000E+00    0.0000000000E+00   -0.1966638762E+03
 should be integers  = 
   -0.1000000000E+01    0.0000000000E+00    0.0000000000E+00
    0.0000000000E+00   -0.1000000000E+01    0.0000000000E+00
    0.0000000000E+00    0.0000000000E+00   -0.1000000000E+01
 inttrialcell  = 
    -1     0     0
     0    -1     0
     0     0    -1
 trialcell  = 
    0.6665570534E+01    0.0000000000E+00    0.0000000000E+00
    0.0000000000E+00    0.1195522128E+02    0.0000000000E+00
    0.0000000000E+00    0.0000000000E+00    0.1966638762E+03
 
 symop  = 
    0.1000000000E+01    0.0000000000E+00    0.0000000000E+00
    0.0000000000E+00   -0.1000000000E+01    0.0000000000E+00
    0.0000000000E+00    0.0000000000E+00   -0.1000000000E+01
 invsym op = 
    0.1000000000E+01    0.0000000000E+00    0.0000000000E+00
    0.0000000000E+00   -0.1000000000E+01    0.0000000000E+00
    0.0000000000E+00    0.0000000000E+00   -0.1000000000E+01
 sym vectors = 
    0.6665570534E+01    0.0000000000E+00    0.0000000000E+00
    0.0000000000E+00   -0.1195522128E+02    0.0000000000E+00
    0.0000000000E+00    0.0000000000E+00   -0.1966638762E+03
 should be integers  = 
    0.1000000000E+01    0.0000000000E+00    0.0000000000E+00
    0.0000000000E+00   -0.1000000000E+01    0.0000000000E+00
    0.0000000000E+00    0.0000000000E+00   -0.1000000000E+01
 inttrialcell  = 
     1     0     0
     0    -1     0
     0     0    -1
 trialcell  = 
    0.6665570534E+01    0.0000000000E+00    0.0000000000E+00
    0.0000000000E+00    0.1195522128E+02    0.0000000000E+00
    0.0000000000E+00    0.0000000000E+00    0.1966638762E+03
 
 symop  = 
   -0.1000000000E+01    0.0000000000E+00    0.0000000000E+00
    0.0000000000E+00    0.1000000000E+01    0.0000000000E+00
    0.0000000000E+00    0.0000000000E+00    0.1000000000E+01
 invsym op = 
   -0.1000000000E+01    0.0000000000E+00    0.0000000000E+00
    0.0000000000E+00    0.1000000000E+01    0.0000000000E+00
    0.0000000000E+00    0.0000000000E+00    0.1000000000E+01
 sym vectors = 
   -0.6665570534E+01    0.0000000000E+00    0.0000000000E+00
    0.0000000000E+00    0.1195522128E+02    0.0000000000E+00
    0.0000000000E+00    0.0000000000E+00    0.1966638762E+03
 should be integers  = 
   -0.1000000000E+01    0.0000000000E+00    0.0000000000E+00
 sym vectors = 
    0.6665570534E+01    0.0000000000E+00    0.0000000000E+00
    0.0000000000E+00    0.1195522128E+02    0.0000000000E+00
    0.0000000000E+00    0.0000000000E+00    0.1966638762E+03
 should be integers  = 
    0.1000000000E+01    0.0000000000E+00    0.0000000000E+00
    0.0000000000E+00    0.1000000000E+01    0.0000000000E+00
    0.0000000000E+00    0.0000000000E+00    0.1000000000E+01
 inttrialcell  = 
     1     0     0
     0     1     0
     0     0     1
 trialcell  = 
    0.6665570534E+01    0.0000000000E+00    0.0000000000E+00
    0.0000000000E+00    0.1195522128E+02    0.0000000000E+00
    0.0000000000E+00    0.0000000000E+00    0.1966638762E+03
 
 symop  = 
   -0.1000000000E+01    0.0000000000E+00    0.0000000000E+00
    0.0000000000E+00   -0.1000000000E+01    0.0000000000E+00
    0.0000000000E+00    0.0000000000E+00   -0.1000000000E+01
 invsym op = 
   -0.1000000000E+01    0.0000000000E+00    0.0000000000E+00
    0.0000000000E+00   -0.1000000000E+01    0.0000000000E+00
    0.0000000000E+00    0.0000000000E+00   -0.1000000000E+01
 sym vectors = 
   -0.6665570534E+01    0.0000000000E+00    0.0000000000E+00
    0.0000000000E+00   -0.1195522128E+02    0.0000000000E+00
    0.0000000000E+00    0.0000000000E+00   -0.1966638762E+03
 should be integers  = 
   -0.1000000000E+01    0.0000000000E+00    0.0000000000E+00
    0.0000000000E+00   -0.1000000000E+01    0.0000000000E+00
    0.0000000000E+00    0.0000000000E+00   -0.1000000000E+01
 inttrialcell  = 
    -1     0     0
     0    -1     0
     0     0    -1
 trialcell  = 
    0.6665570534E+01    0.0000000000E+00    0.0000000000E+00
    0.0000000000E+00    0.1195522128E+02    0.0000000000E+00
    0.0000000000E+00    0.0000000000E+00    0.1966638762E+03
 
 symop  = 
    0.1000000000E+01    0.0000000000E+00    0.0000000000E+00
    0.0000000000E+00   -0.1000000000E+01    0.0000000000E+00
    0.0000000000E+00    0.0000000000E+00   -0.1000000000E+01
 invsym op = 
    0.1000000000E+01    0.0000000000E+00    0.0000000000E+00
    0.0000000000E+00   -0.1000000000E+01    0.0000000000E+00
    0.0000000000E+00    0.0000000000E+00   -0.1000000000E+01
 sym vectors = 
    0.6665570534E+01    0.0000000000E+00    0.0000000000E+00
    0.0000000000E+00   -0.1195522128E+02    0.0000000000E+00
    0.0000000000E+00    0.0000000000E+00   -0.1966638762E+03
 should be integers  = 
    0.1000000000E+01    0.0000000000E+00    0.0000000000E+00
    0.0000000000E+00   -0.1000000000E+01    0.0000000000E+00
    0.0000000000E+00    0.0000000000E+00   -0.1000000000E+01
 inttrialcell  = 
     1     0     0
     0    -1     0
     0     0    -1
 trialcell  = 
    0.6665570534E+01    0.0000000000E+00    0.0000000000E+00
    0.0000000000E+00    0.1195522128E+02    0.0000000000E+00
    0.0000000000E+00    0.0000000000E+00    0.1966638762E+03
 
 symop  = 
   -0.1000000000E+01    0.0000000000E+00    0.0000000000E+00
    0.0000000000E+00    0.1000000000E+01    0.0000000000E+00
    0.0000000000E+00    0.0000000000E+00    0.1000000000E+01
 invsym op = 
   -0.1000000000E+01    0.0000000000E+00    0.0000000000E+00
    0.0000000000E+00    0.1000000000E+01    0.0000000000E+00
    0.0000000000E+00    0.0000000000E+00    0.1000000000E+01
 sym vectors = 
   -0.6665570534E+01    0.0000000000E+00    0.0000000000E+00
    0.0000000000E+00    0.1195522128E+02    0.0000000000E+00
    0.0000000000E+00    0.0000000000E+00    0.1966638762E+03
 should be integers  = 
   -0.1000000000E+01    0.0000000000E+00    0.0000000000E+00
    0.0000000000E+00    0.1000000000E+01    0.0000000000E+00
    0.0000000000E+00    0.0000000000E+00    0.1000000000E+01
 inttrialcell  = 
    -1     0     0
     0     1     0
     0     0     1
 trialcell  = 
    0.6665570534E+01    0.0000000000E+00    0.0000000000E+00
    0.0000000000E+00    0.1195522128E+02    0.0000000000E+00
    0.0000000000E+00    0.0000000000E+00    0.1966638762E+03
 cell  = 
    0.6665570534E+01    0.0000000000E+00    0.0000000000E+00
    0.0000000000E+00    0.1195522128E+02    0.0000000000E+00
    0.0000000000E+00    0.0000000000E+00    0.1966638762E+03
recipcell  = 
    0.1500246670E+00    0.0000000000E+00    0.0000000000E+00
    0.0000000000E+00    0.8364546138E-01    0.0000000000E+00
    0.0000000000E+00    0.0000000000E+00    0.5084817911E-02
 
 symop  = 
    0.1000000000E+01    0.0000000000E+00    0.0000000000E+00
    0.0000000000E+00    0.1000000000E+01    0.0000000000E+00
    0.0000000000E+00    0.0000000000E+00    0.1000000000E+01
 invsym op = 
    0.1000000000E+01    0.0000000000E+00    0.0000000000E+00
    0.0000000000E+00    0.1000000000E+01    0.0000000000E+00
    0.0000000000E+00    0.0000000000E+00    0.1000000000E+01
 sym vectors = 
    0.6665570534E+01    0.0000000000E+00    0.0000000000E+00
    0.0000000000E+00    0.1195522128E+02    0.0000000000E+00
    0.0000000000E+00    0.0000000000E+00    0.1966638762E+03
 should be integers  = 
    0.1000000000E+01    0.0000000000E+00    0.0000000000E+00
    0.0000000000E+00    0.1000000000E+01    0.0000000000E+00
    0.0000000000E+00    0.0000000000E+00    0.1000000000E+01
 inttrialcell  = 
     1     0     0
     0     1     0
     0     0     1
 trialcell  = 
    0.6665570534E+01    0.0000000000E+00    0.0000000000E+00
    0.0000000000E+00    0.1195522128E+02    0.0000000000E+00
    0.0000000000E+00    0.0000000000E+00    0.1966638762E+03
 
 symop  = 
   -0.1000000000E+01    0.0000000000E+00    0.0000000000E+00
    0.0000000000E+00   -0.1000000000E+01    0.0000000000E+00
    0.0000000000E+00    0.0000000000E+00   -0.1000000000E+01
 invsym op = 
   -0.1000000000E+01    0.0000000000E+00    0.0000000000E+00
    0.0000000000E+00   -0.1000000000E+01    0.0000000000E+00
    0.0000000000E+00    0.0000000000E+00   -0.1000000000E+01
 sym vectors = 
   -0.6665570534E+01    0.0000000000E+00    0.0000000000E+00
    0.0000000000E+00   -0.1195522128E+02    0.0000000000E+00
    0.0000000000E+00    0.0000000000E+00   -0.1966638762E+03
 should be integers  = 
   -0.1000000000E+01    0.0000000000E+00    0.0000000000E+00
    0.0000000000E+00   -0.1000000000E+01    0.0000000000E+00
    0.0000000000E+00    0.0000000000E+00   -0.1000000000E+01
 inttrialcell  = 
    -1     0     0
     0    -1     0
     0     0    -1
 trialcell  = 
    0.6665570534E+01    0.0000000000E+00    0.0000000000E+00
    0.0000000000E+00    0.1195522128E+02    0.0000000000E+00
    0.0000000000E+00    0.0000000000E+00    0.1966638762E+03
 
 symop  = 
    0.1000000000E+01    0.0000000000E+00    0.0000000000E+00
    0.0000000000E+00   -0.1000000000E+01    0.0000000000E+00
    0.0000000000E+00    0.0000000000E+00   -0.1000000000E+01
 invsym op = 
    0.1000000000E+01    0.0000000000E+00    0.0000000000E+00
    0.0000000000E+00   -0.1000000000E+01    0.0000000000E+00
    0.0000000000E+00    0.0000000000E+00   -0.1000000000E+01
 sym vectors = 
    0.6665570534E+01    0.0000000000E+00    0.0000000000E+00
    0.0000000000E+00   -0.1195522128E+02    0.0000000000E+00
    0.0000000000E+00    0.0000000000E+00   -0.1966638762E+03
 should be integers  = 
    0.1000000000E+01    0.0000000000E+00    0.0000000000E+00
    0.0000000000E+00   -0.1000000000E+01    0.0000000000E+00
    0.0000000000E+00    0.0000000000E+00   -0.1000000000E+01
 inttrialcell  = 
     1     0     0
     0    -1     0
     0     0    -1
 trialcell  = 
    0.6665570534E+01    0.0000000000E+00    0.0000000000E+00
    0.0000000000E+00    0.1195522128E+02    0.0000000000E+00
    0.0000000000E+00    0.0000000000E+00    0.1966638762E+03
 
 symop  = 
   -0.1000000000E+01    0.0000000000E+00    0.0000000000E+00
    0.0000000000E+00    0.1000000000E+01    0.0000000000E+00
    0.0000000000E+00    0.0000000000E+00    0.1000000000E+01
 invsym op = 
   -0.1000000000E+01    0.0000000000E+00    0.0000000000E+00
    0.0000000000E+00    0.1000000000E+01    0.0000000000E+00
    0.0000000000E+00    0.0000000000E+00    0.1000000000E+01
 sym vectors = 
   -0.6665570534E+01    0.0000000000E+00    0.0000000000E+00
    0.0000000000E+00    0.1195522128E+02    0.0000000000E+00
    0.0000000000E+00    0.0000000000E+00    0.1966638762E+03
 should be integers  = 
   -0.1000000000E+01    0.0000000000E+00    0.0000000000E+00
 sym vectors = 
    0.6665570534E+01    0.0000000000E+00    0.0000000000E+00
    0.0000000000E+00    0.1195522128E+02    0.0000000000E+00
    0.0000000000E+00    0.0000000000E+00    0.1966638762E+03
 should be integers  = 
    0.1000000000E+01    0.0000000000E+00    0.0000000000E+00
    0.0000000000E+00    0.1000000000E+01    0.0000000000E+00
    0.0000000000E+00    0.0000000000E+00    0.1000000000E+01
 inttrialcell  = 
     1     0     0
     0     1     0
     0     0     1
 trialcell  = 
    0.6665570534E+01    0.0000000000E+00    0.0000000000E+00
    0.0000000000E+00    0.1195522128E+02    0.0000000000E+00
    0.0000000000E+00    0.0000000000E+00    0.1966638762E+03
 
 symop  = 
   -0.1000000000E+01    0.0000000000E+00    0.0000000000E+00
    0.0000000000E+00   -0.1000000000E+01    0.0000000000E+00
    0.0000000000E+00    0.0000000000E+00   -0.1000000000E+01
 invsym op = 
   -0.1000000000E+01    0.0000000000E+00    0.0000000000E+00
    0.0000000000E+00   -0.1000000000E+01    0.0000000000E+00
    0.0000000000E+00    0.0000000000E+00   -0.1000000000E+01
 sym vectors = 
   -0.6665570534E+01    0.0000000000E+00    0.0000000000E+00
    0.0000000000E+00   -0.1195522128E+02    0.0000000000E+00
    0.0000000000E+00    0.0000000000E+00   -0.1966638762E+03
 should be integers  = 
   -0.1000000000E+01    0.0000000000E+00    0.0000000000E+00
    0.0000000000E+00   -0.1000000000E+01    0.0000000000E+00
    0.0000000000E+00    0.0000000000E+00   -0.1000000000E+01
 inttrialcell  = 
    -1     0     0
     0    -1     0
     0     0    -1
 trialcell  = 
    0.6665570534E+01    0.0000000000E+00    0.0000000000E+00
    0.0000000000E+00    0.1195522128E+02    0.0000000000E+00
    0.0000000000E+00    0.0000000000E+00    0.1966638762E+03
 
 symop  = 
    0.1000000000E+01    0.0000000000E+00    0.0000000000E+00
    0.0000000000E+00   -0.1000000000E+01    0.0000000000E+00
    0.0000000000E+00    0.0000000000E+00   -0.1000000000E+01
 invsym op = 
    0.1000000000E+01    0.0000000000E+00    0.0000000000E+00
    0.0000000000E+00   -0.1000000000E+01    0.0000000000E+00
    0.0000000000E+00    0.0000000000E+00   -0.1000000000E+01
 sym vectors = 
    0.6665570534E+01    0.0000000000E+00    0.0000000000E+00
    0.0000000000E+00   -0.1195522128E+02    0.0000000000E+00
    0.0000000000E+00    0.0000000000E+00   -0.1966638762E+03
 should be integers  = 
    0.1000000000E+01    0.0000000000E+00    0.0000000000E+00
    0.0000000000E+00   -0.1000000000E+01    0.0000000000E+00
    0.0000000000E+00    0.0000000000E+00   -0.1000000000E+01
 inttrialcell  = 
     1     0     0
     0    -1     0
     0     0    -1
 trialcell  = 
    0.6665570534E+01    0.0000000000E+00    0.0000000000E+00
    0.0000000000E+00    0.1195522128E+02    0.0000000000E+00
    0.0000000000E+00    0.0000000000E+00    0.1966638762E+03
 
 symop  = 
   -0.1000000000E+01    0.0000000000E+00    0.0000000000E+00
    0.0000000000E+00    0.1000000000E+01    0.0000000000E+00
    0.0000000000E+00    0.0000000000E+00    0.1000000000E+01
 invsym op = 
   -0.1000000000E+01    0.0000000000E+00    0.0000000000E+00
    0.0000000000E+00    0.1000000000E+01    0.0000000000E+00
    0.0000000000E+00    0.0000000000E+00    0.1000000000E+01
 sym vectors = 
   -0.6665570534E+01    0.0000000000E+00    0.0000000000E+00
    0.0000000000E+00    0.1195522128E+02    0.0000000000E+00
    0.0000000000E+00    0.0000000000E+00    0.1966638762E+03
 should be integers  = 
   -0.1000000000E+01    0.0000000000E+00    0.0000000000E+00
    0.0000000000E+00    0.1000000000E+01    0.0000000000E+00
    0.0000000000E+00    0.0000000000E+00    0.1000000000E+01
 inttrialcell  = 
    -1     0     0
     0     1     0
     0     0     1
 trialcell  = 
    0.6665570534E+01    0.0000000000E+00    0.0000000000E+00
    0.0000000000E+00    0.1195522128E+02    0.0000000000E+00
    0.0000000000E+00    0.0000000000E+00    0.1966638762E+03
 cell  = 
    0.6665570534E+01    0.0000000000E+00    0.0000000000E+00
    0.0000000000E+00    0.1195522128E+02    0.0000000000E+00
    0.0000000000E+00    0.0000000000E+00    0.1966638762E+03
recipcell  = 
    0.1500246670E+00    0.0000000000E+00    0.0000000000E+00
    0.0000000000E+00    0.8364546138E-01    0.0000000000E+00
    0.0000000000E+00    0.0000000000E+00    0.5084817911E-02
 
 symop  = 
    0.1000000000E+01    0.0000000000E+00    0.0000000000E+00
    0.0000000000E+00    0.1000000000E+01    0.0000000000E+00
    0.0000000000E+00    0.0000000000E+00    0.1000000000E+01
 invsym op = 
    0.1000000000E+01    0.0000000000E+00    0.0000000000E+00
    0.0000000000E+00    0.1000000000E+01    0.0000000000E+00
    0.0000000000E+00    0.0000000000E+00    0.1000000000E+01
 sym vectors = 
    0.6665570534E+01    0.0000000000E+00    0.0000000000E+00
    0.0000000000E+00    0.1195522128E+02    0.0000000000E+00
    0.0000000000E+00    0.0000000000E+00    0.1966638762E+03
 should be integers  = 
    0.1000000000E+01    0.0000000000E+00    0.0000000000E+00
    0.0000000000E+00    0.1000000000E+01    0.0000000000E+00
    0.0000000000E+00    0.0000000000E+00    0.1000000000E+01
 inttrialcell  = 
     1     0     0
     0     1     0
     0     0     1
 trialcell  = 
    0.6665570534E+01    0.0000000000E+00    0.0000000000E+00
    0.0000000000E+00    0.1195522128E+02    0.0000000000E+00
    0.0000000000E+00    0.0000000000E+00    0.1966638762E+03
 
 symop  = 
   -0.1000000000E+01    0.0000000000E+00    0.0000000000E+00
    0.0000000000E+00   -0.1000000000E+01    0.0000000000E+00
    0.0000000000E+00    0.0000000000E+00   -0.1000000000E+01
 invsym op = 
   -0.1000000000E+01    0.0000000000E+00    0.0000000000E+00
    0.0000000000E+00   -0.1000000000E+01    0.0000000000E+00
    0.0000000000E+00    0.0000000000E+00   -0.1000000000E+01
 sym vectors = 
   -0.6665570534E+01    0.0000000000E+00    0.0000000000E+00
    0.0000000000E+00   -0.1195522128E+02    0.0000000000E+00
    0.0000000000E+00    0.0000000000E+00   -0.1966638762E+03
 should be integers  = 
   -0.1000000000E+01    0.0000000000E+00    0.0000000000E+00
    0.0000000000E+00   -0.1000000000E+01    0.0000000000E+00
    0.0000000000E+00    0.0000000000E+00   -0.1000000000E+01
 inttrialcell  = 
    -1     0     0
     0    -1     0
     0     0    -1
 trialcell  = 
    0.6665570534E+01    0.0000000000E+00    0.0000000000E+00
    0.0000000000E+00    0.1195522128E+02    0.0000000000E+00
    0.0000000000E+00    0.0000000000E+00    0.1966638762E+03
 
 symop  = 
    0.1000000000E+01    0.0000000000E+00    0.0000000000E+00
    0.0000000000E+00   -0.1000000000E+01    0.0000000000E+00
    0.0000000000E+00    0.0000000000E+00   -0.1000000000E+01
 invsym op = 
    0.1000000000E+01    0.0000000000E+00    0.0000000000E+00
    0.0000000000E+00   -0.1000000000E+01    0.0000000000E+00
    0.0000000000E+00    0.0000000000E+00   -0.1000000000E+01
 sym vectors = 
    0.6665570534E+01    0.0000000000E+00    0.0000000000E+00
    0.0000000000E+00   -0.1195522128E+02    0.0000000000E+00
    0.0000000000E+00    0.0000000000E+00   -0.1966638762E+03
 should be integers  = 
    0.1000000000E+01    0.0000000000E+00    0.0000000000E+00
    0.0000000000E+00   -0.1000000000E+01    0.0000000000E+00
    0.0000000000E+00    0.0000000000E+00   -0.1000000000E+01
 inttrialcell  = 
     1     0     0
     0    -1     0
     0     0    -1
 trialcell  = 
    0.6665570534E+01    0.0000000000E+00    0.0000000000E+00
    0.0000000000E+00    0.1195522128E+02    0.0000000000E+00
    0.0000000000E+00    0.0000000000E+00    0.1966638762E+03
 
 symop  = 
   -0.1000000000E+01    0.0000000000E+00    0.0000000000E+00
    0.0000000000E+00    0.1000000000E+01    0.0000000000E+00
    0.0000000000E+00    0.0000000000E+00    0.1000000000E+01
 invsym op = 
   -0.1000000000E+01    0.0000000000E+00    0.0000000000E+00
    0.0000000000E+00    0.1000000000E+01    0.0000000000E+00
    0.0000000000E+00    0.0000000000E+00    0.1000000000E+01
 sym vectors = 
   -0.6665570534E+01    0.0000000000E+00    0.0000000000E+00
    0.0000000000E+00    0.1195522128E+02    0.0000000000E+00
    0.0000000000E+00    0.0000000000E+00    0.1966638762E+03
 should be integers  = 
   -0.1000000000E+01    0.0000000000E+00    0.0000000000E+00
recipcell  = 
    0.1500246670E+00    0.0000000000E+00    0.0000000000E+00
    0.0000000000E+00    0.8364546138E-01    0.0000000000E+00
    0.0000000000E+00    0.0000000000E+00    0.5084817911E-02
 
 symop  = 
    0.1000000000E+01    0.0000000000E+00    0.0000000000E+00
    0.0000000000E+00    0.1000000000E+01    0.0000000000E+00
    0.0000000000E+00    0.0000000000E+00    0.1000000000E+01
 invsym op = 
    0.1000000000E+01    0.0000000000E+00    0.0000000000E+00
    0.0000000000E+00    0.1000000000E+01    0.0000000000E+00
    0.0000000000E+00    0.0000000000E+00    0.1000000000E+01
 sym vectors = 
    0.6665570534E+01    0.0000000000E+00    0.0000000000E+00
    0.0000000000E+00    0.1195522128E+02    0.0000000000E+00
    0.0000000000E+00    0.0000000000E+00    0.1966638762E+03
 should be integers  = 
    0.1000000000E+01    0.0000000000E+00    0.0000000000E+00
    0.0000000000E+00    0.1000000000E+01    0.0000000000E+00
    0.0000000000E+00    0.0000000000E+00    0.1000000000E+01
 inttrialcell  = 
     1     0     0
     0     1     0
     0     0     1
 trialcell  = 
    0.6665570534E+01    0.0000000000E+00    0.0000000000E+00
    0.0000000000E+00    0.1195522128E+02    0.0000000000E+00
    0.0000000000E+00    0.0000000000E+00    0.1966638762E+03
 
 symop  = 
   -0.1000000000E+01    0.0000000000E+00    0.0000000000E+00
    0.0000000000E+00   -0.1000000000E+01    0.0000000000E+00
    0.0000000000E+00    0.0000000000E+00   -0.1000000000E+01
 invsym op = 
   -0.1000000000E+01    0.0000000000E+00    0.0000000000E+00
    0.0000000000E+00   -0.1000000000E+01    0.0000000000E+00
    0.0000000000E+00    0.0000000000E+00   -0.1000000000E+01
 sym vectors = 
   -0.6665570534E+01    0.0000000000E+00    0.0000000000E+00
    0.0000000000E+00   -0.1195522128E+02    0.0000000000E+00
    0.0000000000E+00    0.0000000000E+00   -0.1966638762E+03
 should be integers  = 
   -0.1000000000E+01    0.0000000000E+00    0.0000000000E+00
    0.0000000000E+00   -0.1000000000E+01    0.0000000000E+00
    0.0000000000E+00    0.0000000000E+00   -0.1000000000E+01
 inttrialcell  = 
    -1     0     0
     0    -1     0
     0     0    -1
 trialcell  = 
    0.6665570534E+01    0.0000000000E+00    0.0000000000E+00
    0.0000000000E+00    0.1195522128E+02    0.0000000000E+00
    0.0000000000E+00    0.0000000000E+00    0.1966638762E+03
 
 symop  = 
    0.1000000000E+01    0.0000000000E+00    0.0000000000E+00
    0.0000000000E+00   -0.1000000000E+01    0.0000000000E+00
    0.0000000000E+00    0.0000000000E+00   -0.1000000000E+01
 invsym op = 
    0.1000000000E+01    0.0000000000E+00    0.0000000000E+00
    0.0000000000E+00   -0.1000000000E+01    0.0000000000E+00
    0.0000000000E+00    0.0000000000E+00   -0.1000000000E+01
 sym vectors = 
    0.6665570534E+01    0.0000000000E+00    0.0000000000E+00
    0.0000000000E+00   -0.1195522128E+02    0.0000000000E+00
    0.0000000000E+00    0.0000000000E+00   -0.1966638762E+03
 should be integers  = 
    0.1000000000E+01    0.0000000000E+00    0.0000000000E+00
    0.0000000000E+00   -0.1000000000E+01    0.0000000000E+00
    0.0000000000E+00    0.0000000000E+00   -0.1000000000E+01
 inttrialcell  = 
     1     0     0
     0    -1     0
     0     0    -1
 trialcell  = 
    0.6665570534E+01    0.0000000000E+00    0.0000000000E+00
    0.0000000000E+00    0.1195522128E+02    0.0000000000E+00
    0.0000000000E+00    0.0000000000E+00    0.1966638762E+03
 
 symop  = 
   -0.1000000000E+01    0.0000000000E+00    0.0000000000E+00
    0.0000000000E+00    0.1000000000E+01    0.0000000000E+00
    0.0000000000E+00    0.0000000000E+00    0.1000000000E+01
 invsym op = 
   -0.1000000000E+01    0.0000000000E+00    0.0000000000E+00
    0.0000000000E+00    0.1000000000E+01    0.0000000000E+00
    0.0000000000E+00    0.0000000000E+00    0.1000000000E+01
 sym vectors = 
   -0.6665570534E+01    0.0000000000E+00    0.0000000000E+00
    0.0000000000E+00    0.1195522128E+02    0.0000000000E+00
    0.0000000000E+00    0.0000000000E+00    0.1966638762E+03
 should be integers  = 
   -0.1000000000E+01    0.0000000000E+00    0.0000000000E+00
    0.1500246670E+00    0.0000000000E+00    0.0000000000E+00
    0.0000000000E+00    0.8364546138E-01    0.0000000000E+00
    0.0000000000E+00    0.0000000000E+00    0.5084817911E-02
 
 symop  = 
    0.1000000000E+01    0.0000000000E+00    0.0000000000E+00
    0.0000000000E+00    0.1000000000E+01    0.0000000000E+00
    0.0000000000E+00    0.0000000000E+00    0.1000000000E+01
 invsym op = 
    0.1000000000E+01    0.0000000000E+00    0.0000000000E+00
    0.0000000000E+00    0.1000000000E+01    0.0000000000E+00
    0.0000000000E+00    0.0000000000E+00    0.1000000000E+01
 sym vectors = 
    0.6665570534E+01    0.0000000000E+00    0.0000000000E+00
    0.0000000000E+00    0.1195522128E+02    0.0000000000E+00
    0.0000000000E+00    0.0000000000E+00    0.1966638762E+03
 should be integers  = 
    0.1000000000E+01    0.0000000000E+00    0.0000000000E+00
    0.0000000000E+00    0.1000000000E+01    0.0000000000E+00
    0.0000000000E+00    0.0000000000E+00    0.1000000000E+01
 inttrialcell  = 
     1     0     0
     0     1     0
     0     0     1
 trialcell  = 
    0.6665570534E+01    0.0000000000E+00    0.0000000000E+00
    0.0000000000E+00    0.1195522128E+02    0.0000000000E+00
    0.0000000000E+00    0.0000000000E+00    0.1966638762E+03
 
 symop  = 
   -0.1000000000E+01    0.0000000000E+00    0.0000000000E+00
    0.0000000000E+00   -0.1000000000E+01    0.0000000000E+00
    0.0000000000E+00    0.0000000000E+00   -0.1000000000E+01
 invsym op = 
   -0.1000000000E+01    0.0000000000E+00    0.0000000000E+00
    0.0000000000E+00   -0.1000000000E+01    0.0000000000E+00
    0.0000000000E+00    0.0000000000E+00   -0.1000000000E+01
 sym vectors = 
   -0.6665570534E+01    0.0000000000E+00    0.0000000000E+00
    0.0000000000E+00   -0.1195522128E+02    0.0000000000E+00
    0.0000000000E+00    0.0000000000E+00   -0.1966638762E+03
 should be integers  = 
   -0.1000000000E+01    0.0000000000E+00    0.0000000000E+00
    0.0000000000E+00   -0.1000000000E+01    0.0000000000E+00
    0.0000000000E+00    0.0000000000E+00   -0.1000000000E+01
 inttrialcell  = 
    -1     0     0
     0    -1     0
     0     0    -1
 trialcell  = 
    0.6665570534E+01    0.0000000000E+00    0.0000000000E+00
    0.0000000000E+00    0.1195522128E+02    0.0000000000E+00
    0.0000000000E+00    0.0000000000E+00    0.1966638762E+03
 
 symop  = 
    0.1000000000E+01    0.0000000000E+00    0.0000000000E+00
    0.0000000000E+00   -0.1000000000E+01    0.0000000000E+00
    0.0000000000E+00    0.0000000000E+00   -0.1000000000E+01
 invsym op = 
    0.1000000000E+01    0.0000000000E+00    0.0000000000E+00
    0.0000000000E+00   -0.1000000000E+01    0.0000000000E+00
    0.0000000000E+00    0.0000000000E+00   -0.1000000000E+01
 sym vectors = 
    0.6665570534E+01    0.0000000000E+00    0.0000000000E+00
    0.0000000000E+00   -0.1195522128E+02    0.0000000000E+00
    0.0000000000E+00    0.0000000000E+00   -0.1966638762E+03
 should be integers  = 
    0.1000000000E+01    0.0000000000E+00    0.0000000000E+00
    0.0000000000E+00   -0.1000000000E+01    0.0000000000E+00
    0.0000000000E+00    0.0000000000E+00   -0.1000000000E+01
 inttrialcell  = 
     1     0     0
     0    -1     0
     0     0    -1
 trialcell  = 
    0.6665570534E+01    0.0000000000E+00    0.0000000000E+00
    0.0000000000E+00    0.1195522128E+02    0.0000000000E+00
    0.0000000000E+00    0.0000000000E+00    0.1966638762E+03
 
 symop  = 
   -0.1000000000E+01    0.0000000000E+00    0.0000000000E+00
    0.0000000000E+00    0.1000000000E+01    0.0000000000E+00
    0.0000000000E+00    0.0000000000E+00    0.1000000000E+01
 invsym op = 
   -0.1000000000E+01    0.0000000000E+00    0.0000000000E+00
    0.0000000000E+00    0.1000000000E+01    0.0000000000E+00
    0.0000000000E+00    0.0000000000E+00    0.1000000000E+01
 sym vectors = 
   -0.6665570534E+01    0.0000000000E+00    0.0000000000E+00
    0.0000000000E+00    0.1195522128E+02    0.0000000000E+00
    0.0000000000E+00    0.0000000000E+00    0.1966638762E+03
 should be integers  = 
   -0.1000000000E+01    0.0000000000E+00    0.0000000000E+00
recipcell  = 
    0.1500246670E+00    0.0000000000E+00    0.0000000000E+00
    0.0000000000E+00    0.8364546138E-01    0.0000000000E+00
    0.0000000000E+00    0.0000000000E+00    0.5084817911E-02
 
 symop  = 
    0.1000000000E+01    0.0000000000E+00    0.0000000000E+00
    0.0000000000E+00    0.1000000000E+01    0.0000000000E+00
    0.0000000000E+00    0.0000000000E+00    0.1000000000E+01
 invsym op = 
    0.1000000000E+01    0.0000000000E+00    0.0000000000E+00
    0.0000000000E+00    0.1000000000E+01    0.0000000000E+00
[...]
Max change in any component of stress due to symmetrization =     0.3198813781E-18
old  stress = 
   -0.4499427644E-06    0.2413476438E-18   -0.1357607565E-18
    0.3198813781E-18   -0.8270472095E-07   -0.1151461001E-06
    0.3032461569E-18   -0.1151466053E-06   -0.2359788162E-06
stress with symmetrization = 
   -0.4499427644E-06    0.0000000000E+00    0.0000000000E+00
    0.0000000000E+00   -0.8270472095E-07   -0.1151461001E-06
    0.0000000000E+00   -0.1151466053E-06   -0.2359788162E-06
change in components of stress due to symmetrization = 
    0.0000000000E+00   -0.2413476438E-18    0.1357607565E-18
   -0.3198813781E-18    0.0000000000E+00    0.0000000000E+00
   -0.3032461569E-18    0.0000000000E+00    0.0000000000E+00
Max change in any component of stress due to symmetrization =     0.3198813781E-18
old  stress = 
   -0.4499427644E-06    0.2413476438E-18   -0.1357607565E-18
    0.3198813781E-18   -0.8270472095E-07   -0.1151461001E-06
    0.3032461569E-18   -0.1151466053E-06   -0.2359788162E-06
stress with symmetrization = 
   -0.4499427644E-06    0.0000000000E+00    0.0000000000E+00
    0.0000000000E+00   -0.8270472095E-07   -0.1151461001E-06
    0.0000000000E+00   -0.1151466053E-06   -0.2359788162E-06
change in components of stress due to symmetrization = 
    0.0000000000E+00   -0.2413476438E-18    0.1357607565E-18
   -0.3198813781E-18    0.0000000000E+00    0.0000000000E+00
   -0.3032461569E-18    0.0000000000E+00    0.0000000000E+00
Max change in any component of stress due to symmetrization =     0.3198813781E-18

siesta: Atomic forces (eV/Ang):
----------------------------------------
   Tot    0.000000    0.000000    0.000000
----------------------------------------
   Max    0.007603
   Res    0.004550    sqrt( Sum f_i^2 / 3N )
----------------------------------------
   Max    0.007603    constrained

Stress tensor Voigt[x,y,z,yz,xz,xy] (kbar):       -0.07       -0.01       -0.03       -0.02        0.00        0.00
(Free)E + p*V (eV/cell)   -15539.4892
Target enthalpy (eV/cell)   -15539.5439
 
moments: Magnetic moments from orbital angular momenta:

Species: W                   

Atom    Orb         sqrt(<L>^2)      <(Lx,Ly,Lz)>
----------------------------------------------------------------------------------------------------
   1    1  5s         0.000    0.000  0.000  0.000
   1    2  6s         0.000    0.000  0.000  0.000
   1    3  6s         0.000    0.000  0.000  0.000
   1    4  5py        0.000    0.000  0.000  0.000
   1    5  5pz        0.000   -0.000  0.000  0.000
   1    6  5px        0.000    0.000  0.000 -0.000
   1    7  5dxy       0.000    0.000  0.000 -0.000
   1    8  5dyz       0.000    0.000  0.000 -0.000
   1    9  5dz2       0.000    0.000 -0.000  0.000
   1   10  5dxz       0.000    0.000 -0.000 -0.000
   1   11  5dx2-y2    0.000    0.000  0.000 -0.000
   1   12  5dxy       0.000    0.000 -0.000 -0.000
   1   13  5dyz       0.000    0.000 -0.000 -0.000
   1   14  5dz2       0.000    0.000 -0.000  0.000
   1   15  5dxz       0.000    0.000 -0.000 -0.000
   1   16  5dx2-y2    0.000   -0.000  0.000 -0.000
   1   17  6Ppy       0.000   -0.000  0.000 -0.000
   1   18  6Ppz       0.000    0.000  0.000  0.000
   1   19  6Ppx       0.000    0.000  0.000  0.000
----------------------------------------------------------------------------------------------------
   1      Total       0.000    0.000 -0.000 -0.000

   2   20  5s         0.000    0.000  0.000  0.000
   2   21  6s         0.000    0.000  0.000  0.000
   2   22  6s         0.000    0.000  0.000  0.000
   2   23  5py        0.000    0.000  0.000  0.000
   2   24  5pz        0.000   -0.000  0.000  0.000
   2   25  5px        0.000    0.000  0.000 -0.000
   2   26  5dxy       0.000    0.000  0.000 -0.000
   2   27  5dyz       0.000   -0.000  0.000 -0.000
   2   28  5dz2       0.000   -0.000 -0.000  0.000
   2   29  5dxz       0.000    0.000 -0.000 -0.000
   2   30  5dx2-y2    0.000   -0.000  0.000 -0.000
   2   31  5dxy       0.000    0.000 -0.000 -0.000
   2   32  5dyz       0.000    0.000 -0.000 -0.000
   2   33  5dz2       0.000    0.000 -0.000  0.000
   2   34  5dxz       0.000    0.000 -0.000 -0.000
   2   35  5dx2-y2    0.000    0.000  0.000 -0.000
   2   36  6Ppy       0.000    0.000  0.000 -0.000
   2   37  6Ppz       0.000    0.000  0.000  0.000
   2   38  6Ppx       0.000    0.000  0.000  0.000
----------------------------------------------------------------------------------------------------
   2      Total       0.000    0.000 -0.000 -0.000


Species: Te                  

Atom    Orb         sqrt(<L>^2)      <(Lx,Ly,Lz)>
----------------------------------------------------------------------------------------------------
   3   39  5s         0.000    0.000  0.000  0.000
   3   40  5s         0.000    0.000  0.000  0.000
   3   41  5py        0.000    0.000  0.000  0.000
   3   42  5pz        0.000    0.000 -0.000  0.000
   3   43  5px        0.000    0.000 -0.000  0.000
   3   44  5py        0.000   -0.000  0.000  0.000
   3   45  5pz        0.000   -0.000 -0.000  0.000
   3   46  5px        0.000    0.000 -0.000  0.000
   3   47  4dxy       0.000   -0.000  0.000  0.000
   3   48  4dyz       0.000   -0.000  0.000 -0.000
   3   49  4dz2       0.000   -0.000  0.000  0.000
   3   50  4dxz       0.000    0.000 -0.000  0.000
   3   51  4dx2-y2    0.000   -0.000  0.000  0.000
   3   52  5Pdxy      0.000    0.000 -0.000  0.000
   3   53  5Pdyz      0.000    0.000 -0.000  0.000
   3   54  5Pdz2      0.000    0.000 -0.000  0.000
   3   55  5Pdxz      0.000   -0.000 -0.000 -0.000
   3   56  5Pdx2-y    0.000    0.000 -0.000  0.000
----------------------------------------------------------------------------------------------------
   3      Total       0.000    0.000 -0.000  0.000

   4   57  5s         0.000    0.000  0.000  0.000
   4   58  5s         0.000    0.000  0.000  0.000
   4   59  5py        0.000   -0.000  0.000  0.000
   4   60  5pz        0.000   -0.000  0.000  0.000
   4   61  5px        0.000    0.000  0.000  0.000
   4   62  5py        0.000   -0.000  0.000  0.000
   4   63  5pz        0.000   -0.000 -0.000  0.000
   4   64  5px        0.000    0.000 -0.000  0.000
   4   65  4dxy       0.000   -0.000 -0.000  0.000
   4   66  4dyz       0.000   -0.000  0.000 -0.000
   4   67  4dz2       0.000   -0.000  0.000  0.000
   4   68  4dxz       0.000    0.000 -0.000 -0.000
   4   69  4dx2-y2    0.000   -0.000  0.000  0.000
   4   70  5Pdxy      0.000    0.000  0.000  0.000
   4   71  5Pdyz      0.000   -0.000 -0.000  0.000
   4   72  5Pdz2      0.000   -0.000  0.000  0.000
   4   73  5Pdxz      0.000    0.000  0.000  0.000
   4   74  5Pdx2-y    0.000   -0.000 -0.000  0.000
----------------------------------------------------------------------------------------------------
   4      Total       0.000   -0.000  0.000  0.000

   5   75  5s         0.000    0.000  0.000  0.000
   5   76  5s         0.000    0.000  0.000  0.000
   5   77  5py        0.000   -0.000  0.000  0.000
   5   78  5pz        0.000   -0.000 -0.000  0.000
   5   79  5px        0.000    0.000 -0.000  0.000
   5   80  5py        0.000    0.000  0.000  0.000
   5   81  5pz        0.000    0.000 -0.000  0.000
   5   82  5px        0.000    0.000 -0.000  0.000
   5   83  4dxy       0.000    0.000  0.000  0.000
   5   84  4dyz       0.000   -0.000  0.000 -0.000
   5   85  4dz2       0.000   -0.000  0.000  0.000
   5   86  4dxz       0.000    0.000 -0.000  0.000
   5   87  4dx2-y2    0.000    0.000  0.000  0.000
   5   88  5Pdxy      0.000    0.000 -0.000  0.000
   5   89  5Pdyz      0.000   -0.000 -0.000  0.000
   5   90  5Pdz2      0.000   -0.000 -0.000  0.000
   5   91  5Pdxz      0.000    0.000 -0.000 -0.000
   5   92  5Pdx2-y    0.000   -0.000 -0.000  0.000
----------------------------------------------------------------------------------------------------
   5      Total       0.000   -0.000 -0.000  0.000

   6   93  5s         0.000    0.000  0.000  0.000
   6   94  5s         0.000    0.000  0.000  0.000
   6   95  5py        0.000    0.000  0.000  0.000
   6   96  5pz        0.000    0.000  0.000  0.000
   6   97  5px        0.000    0.000  0.000  0.000
   6   98  5py        0.000    0.000  0.000  0.000
   6   99  5pz        0.000    0.000 -0.000  0.000
   6  100  5px        0.000    0.000 -0.000  0.000
   6  101  4dxy       0.000    0.000 -0.000  0.000
   6  102  4dyz       0.000    0.000  0.000 -0.000
   6  103  4dz2       0.000   -0.000  0.000  0.000
   6  104  4dxz       0.000   -0.000 -0.000 -0.000
   6  105  4dx2-y2    0.000    0.000  0.000  0.000
   6  106  5Pdxy      0.000   -0.000  0.000  0.000
   6  107  5Pdyz      0.000    0.000 -0.000  0.000
   6  108  5Pdz2      0.000    0.000  0.000  0.000
   6  109  5Pdxz      0.000    0.000  0.000  0.000
   6  110  5Pdx2-y    0.000   -0.000 -0.000  0.000
----------------------------------------------------------------------------------------------------
   6      Total       0.000    0.000  0.000  0.000

----------------------------------------------------------------------------------------------------
 Sum                  0.000    0.000 -0.000  0.000

 
mulliken: Atomic and Orbital Populations:

Species: W                   

Atom      Orb        Charge      Spin       Svec
----------------------------------------------------------------
    1  1 5s         1.98037   0.00000      0.000  -0.000  -0.000
    1  2 6s         0.13565   0.00000     -0.000   0.000  -0.000
    1  3 6s         0.26803   0.00000      0.000  -0.000  -0.000
    1  4 5py        1.98272   0.00000     -0.000   0.000  -0.000
    1  5 5pz        1.98499   0.00000      0.000  -0.000  -0.000
    1  6 5px        1.98287   0.00000     -0.000  -0.000  -0.000
    1  7 5dxy       1.26459   0.00000      0.000   0.000  -0.000
    1  8 5dyz       1.06458   0.00000      0.000   0.000  -0.000
    1  9 5dz2       1.23815   0.00000     -0.000  -0.000  -0.000
    1 10 5dxz       1.13967   0.00000      0.000  -0.000  -0.000
    1 11 5dx2-y2    0.88193   0.00000      0.000   0.000  -0.000
    1 12 5dxy      -0.12593   0.00000      0.000  -0.000  -0.000
    1 13 5dyz      -0.12973   0.00000     -0.000   0.000  -0.000
    1 14 5dz2      -0.13714   0.00000      0.000  -0.000  -0.000
    1 15 5dxz      -0.11235   0.00000     -0.000   0.000  -0.000
    1 16 5dx2-y2   -0.08383   0.00000     -0.000  -0.000  -0.000
    1 17 6Ppy       0.25094   0.00000     -0.000   0.000  -0.000
    1 18 6Ppz       0.26789   0.00000     -0.000  -0.000  -0.000
    1 19 6Ppx       0.23198   0.00000      0.000  -0.000  -0.000
    1     Total    14.08537   0.00001      0.000  -0.000  -0.000

    2  1 5s         1.98037   0.00000     -0.000  -0.000  -0.000
    2  2 6s         0.13565   0.00000      0.000   0.000  -0.000
    2  3 6s         0.26803   0.00000     -0.000  -0.000  -0.000
    2  4 5py        1.98272   0.00000      0.000   0.000  -0.000
    2  5 5pz        1.98499   0.00000      0.000  -0.000  -0.000
    2  6 5px        1.98287   0.00000     -0.000  -0.000  -0.000
    2  7 5dxy       1.26459   0.00000     -0.000   0.000  -0.000
    2  8 5dyz       1.06458   0.00000      0.000   0.000  -0.000
    2  9 5dz2       1.23815   0.00000     -0.000  -0.000  -0.000
    2 10 5dxz       1.13967   0.00000      0.000  -0.000  -0.000
    2 11 5dx2-y2    0.88193   0.00000      0.000   0.000  -0.000
    2 12 5dxy      -0.12593   0.00000     -0.000  -0.000  -0.000
    2 13 5dyz      -0.12973   0.00000     -0.000   0.000  -0.000
    2 14 5dz2      -0.13714   0.00000     -0.000  -0.000  -0.000
    2 15 5dxz      -0.11235   0.00000     -0.000   0.000  -0.000
    2 16 5dx2-y2   -0.08383   0.00000     -0.000  -0.000  -0.000
    2 17 6Ppy       0.25094   0.00000     -0.000   0.000  -0.000
    2 18 6Ppz       0.26789   0.00000     -0.000  -0.000  -0.000
    2 19 6Ppx       0.23198   0.00000      0.000  -0.000  -0.000
    2     Total    14.08537   0.00001     -0.000  -0.000  -0.000

----------------------------------------------------------------
Total              28.17074   0.00001      0.000  -0.000  -0.000


Species: Te                  

Atom      Orb        Charge      Spin       Svec
----------------------------------------------------------------
    3  1 5s         1.70519   0.00000     -0.000  -0.000   0.000
    3  2 5s         0.11503   0.00000      0.000  -0.000  -0.000
    3  3 5py        1.28162   0.00000     -0.000  -0.000   0.000
    3  4 5pz        1.40703   0.00000     -0.000  -0.000   0.000
    3  5 5px        1.19095   0.00000     -0.000  -0.000   0.000
    3  6 5py       -0.00986   0.00000      0.000   0.000  -0.000
    3  7 5pz        0.01800   0.00000     -0.000  -0.000  -0.000
    3  8 5px        0.00462   0.00000      0.000   0.000  -0.000
    3  9 4dxy       1.99271   0.00000      0.000   0.000  -0.000
    3 10 4dyz       1.99311   0.00000     -0.000   0.000  -0.000
    3 11 4dz2       1.99285   0.00000     -0.000   0.000  -0.000
    3 12 4dxz       1.99284   0.00000     -0.000   0.000  -0.000
    3 13 4dx2-y2    1.99295   0.00000      0.000   0.000  -0.000
    3 14 5Pdxy      0.06060   0.00000     -0.000   0.000   0.000
    3 15 5Pdyz      0.05657   0.00000     -0.000   0.000   0.000
    3 16 5Pdz2      0.04654   0.00000     -0.000   0.000   0.000
    3 17 5Pdxz      0.04894   0.00000     -0.000  -0.000   0.000
    3 18 5Pdx2-y2   0.06680   0.00000     -0.000  -0.000   0.000
    3     Total    15.95648   0.00000     -0.000  -0.000   0.000

    4  1 5s         1.69592   0.00000     -0.000  -0.000   0.000
    4  2 5s         0.12831   0.00000      0.000   0.000  -0.000
    4  3 5py        1.31818   0.00000     -0.000   0.000   0.000
    4  4 5pz        1.24274   0.00000      0.000  -0.000   0.000
    4  5 5px        1.20821   0.00000      0.000   0.000   0.000
    4  6 5py       -0.00179   0.00000      0.000   0.000   0.000
    4  7 5pz        0.11066   0.00000     -0.000   0.000   0.000
    4  8 5px        0.02128   0.00000     -0.000   0.000   0.000
    4  9 4dxy       1.99259   0.00000     -0.000  -0.000  -0.000
    4 10 4dyz       1.99257   0.00000      0.000  -0.000  -0.000
    4 11 4dz2       1.99251   0.00000      0.000  -0.000  -0.000
    4 12 4dxz       1.99255   0.00000      0.000  -0.000  -0.000
    4 13 4dx2-y2    1.99275   0.00000      0.000  -0.000  -0.000
    4 14 5Pdxy      0.05385   0.00000     -0.000   0.000   0.000
    4 15 5Pdyz      0.03883   0.00000     -0.000  -0.000   0.000
    4 16 5Pdz2      0.06721   0.00000     -0.000   0.000   0.000
    4 17 5Pdxz      0.05221   0.00000     -0.000  -0.000   0.000
    4 18 5Pdx2-y2   0.05957   0.00000     -0.000   0.000   0.000
    4     Total    15.95815   0.00000      0.000   0.000   0.000

    5  1 5s         1.70519   0.00000      0.000  -0.000   0.000
    5  2 5s         0.11503   0.00000     -0.000  -0.000  -0.000
    5  3 5py        1.28162   0.00000      0.000  -0.000   0.000
    5  4 5pz        1.40703   0.00000     -0.000  -0.000   0.000
    5  5 5px        1.19095   0.00000      0.000  -0.000   0.000
    5  6 5py       -0.00986   0.00000     -0.000   0.000  -0.000
    5  7 5pz        0.01800   0.00000     -0.000  -0.000  -0.000
    5  8 5px        0.00462   0.00000      0.000   0.000  -0.000
    5  9 4dxy       1.99271   0.00000     -0.000   0.000  -0.000
    5 10 4dyz       1.99311   0.00000      0.000   0.000  -0.000
    5 11 4dz2       1.99285   0.00000      0.000   0.000  -0.000
    5 12 4dxz       1.99284   0.00000     -0.000   0.000  -0.000
    5 13 4dx2-y2    1.99295   0.00000      0.000   0.000  -0.000
    5 14 5Pdxy      0.06060   0.00000     -0.000   0.000   0.000
    5 15 5Pdyz      0.05657   0.00000     -0.000   0.000   0.000
    5 16 5Pdz2      0.04654   0.00000      0.000   0.000   0.000
    5 17 5Pdxz      0.04894   0.00000      0.000  -0.000   0.000
    5 18 5Pdx2-y2   0.06680   0.00000     -0.000  -0.000   0.000
    5     Total    15.95648   0.00000     -0.000  -0.000   0.000

    6  1 5s         1.69592   0.00000      0.000  -0.000   0.000
    6  2 5s         0.12831   0.00000     -0.000   0.000  -0.000
    6  3 5py        1.31818   0.00000     -0.000   0.000   0.000
    6  4 5pz        1.24274   0.00000     -0.000  -0.000   0.000
    6  5 5px        1.20821   0.00000      0.000   0.000   0.000
    6  6 5py       -0.00179   0.00000      0.000   0.000   0.000
    6  7 5pz        0.11066   0.00000      0.000   0.000   0.000
    6  8 5px        0.02128   0.00000     -0.000   0.000   0.000
    6  9 4dxy       1.99259   0.00000     -0.000  -0.000  -0.000
    6 10 4dyz       1.99257   0.00000      0.000  -0.000  -0.000
    6 11 4dz2       1.99251   0.00000      0.000  -0.000  -0.000
    6 12 4dxz       1.99255   0.00000     -0.000  -0.000  -0.000
    6 13 4dx2-y2    1.99275   0.00000      0.000  -0.000  -0.000
    6 14 5Pdxy      0.05385   0.00000      0.000   0.000   0.000
    6 15 5Pdyz      0.03883   0.00000     -0.000  -0.000   0.000
    6 16 5Pdz2      0.06721   0.00000     -0.000   0.000   0.000
    6 17 5Pdxz      0.05221   0.00000      0.000  -0.000   0.000
    6 18 5Pdx2-y2   0.05957   0.00000      0.000   0.000   0.000
    6     Total    15.95815   0.00000     -0.000   0.000   0.000

----------------------------------------------------------------
Total              92.00000   0.00000      0.000  -0.000  -0.000

Computing bands...

siesta: Program's energy decomposition (eV):
siesta: Ebs     =     -2813.215339
siesta: Eions   =     19926.169494
siesta: Ena     =      3125.552418
siesta: Ekin    =      7290.883790
siesta: Enl(+so)=     -2513.512917
siesta: Eso(nil)=         0.000000
siesta: Edftu   =         0.000000
siesta: DEna    =        63.132585
siesta: DUscf   =         1.119275
siesta: DUext   =         0.000000
siesta: Ex      =     -3368.081249
siesta: Ec      =      -212.468203
siesta: Exc     =     -3580.549452
siesta: eta*DQ  =         0.000000
siesta: Emadel  =         0.000000
siesta: Emeta   =         0.000000
siesta: Emolmec =         0.000000
siesta: Ekinion =         0.000000
siesta: Eharris =    -15539.543796
siesta: Etot    =    -15539.543795
siesta: FreeEng =    -15539.543873

siesta: Final energy (eV):
siesta:  Band Struct. =   -2813.215339
siesta:       Kinetic =    7290.883790
siesta:       Hartree =  269341.904063
siesta:       Edftu   =       0.000000
siesta:      Eso(nil) =       0.000000
siesta:    Ext. field =       0.000000
siesta:         Exch. =   -3368.081249
siesta:         Corr. =    -212.468203
siesta:   Exch.-corr. =   -3580.549452
siesta:  Ion-electron = -546541.112993
siesta:       Ion-ion =  257949.330796
siesta:       Ekinion =       0.000000
siesta:         Total =  -15539.543795
siesta:         Fermi =      -4.400191

siesta: Stress tensor (static) (eV/Ang**3):
siesta:    -0.000041    0.000000    0.000000
siesta:     0.000000   -0.000008   -0.000011
siesta:     0.000000   -0.000011   -0.000022

siesta: Cell volume =       2322.321922 Ang**3

siesta: Pressure (static):
siesta:                Solid            Molecule  Units
siesta:           0.00000026          0.00000017  Ry/Bohr**3
siesta:           0.00002352          0.00001558  eV/Ang**3
siesta:           0.03769036          0.02496514  kBar
(Free)E+ p_basis*V_orbitals  =      -15532.641623
(Free)Eharris+ p_basis*V_orbitals  =      -15532.641623
     spin moment: S , {S} =    0.00000   0.00000  -0.00000  -0.00000

siesta: Electric dipole (a.u.)  =    0.000000    0.000000    0.000001
siesta: Electric dipole (Debye) =    0.000000    0.000000    0.000001

cite: Please see "WTe2.bib" for an exhaustive BiBTeX file.
cite: Please clearly indicate Siesta version in published work: psml+spglib (unofficial)
cite: This calculation has made use of the following articles
cite: which are encouraged to be cited in a published work.
        Primary SIESTA paper
          DOI: www.doi.org/10.1088/0953-8984/14/11/302
        Spin-orbit coupling (off-site approximation)
          DOI: www.doi.org/10.1088/0953-8984/24/8/086005
 
 
>> End of run:  28-JUN-2022  14:53:44
Job completed
